
                                 *****************
                                 * O   R   C   A *
                                 *****************

                                            #,                                       
                                            ###                                      
                                            ####                                     
                                            #####                                    
                                            ######                                   
                                           ########,                                 
                                     ,,################,,,,,                         
                               ,,#################################,,                 
                          ,,##########################################,,             
                       ,#########################################, ''#####,          
                    ,#############################################,,   '####,        
                  ,##################################################,,,,####,       
                ,###########''''           ''''###############################       
              ,#####''   ,,,,##########,,,,          '''####'''          '####       
            ,##' ,,,,###########################,,,                        '##       
           ' ,,###''''                  '''############,,,                           
         ,,##''                                '''############,,,,        ,,,,,,###''
      ,#''                                            '''#######################'''  
     '                                                          ''''####''''         
             ,#######,   #######,   ,#######,      ##                                
            ,#'     '#,  ##    ##  ,#'     '#,    #''#        ######   ,####,        
            ##       ##  ##   ,#'  ##            #'  '#       #        #'  '#        
            ##       ##  #######   ##           ,######,      #####,   #    #        
            '#,     ,#'  ##    ##  '#,     ,#' ,#      #,         ##   #,  ,#        
             '#######'   ##     ##  '#######'  #'      '#     #####' # '####'        



                  #######################################################
                  #                        -***-                        #
                  #          Department of theory and spectroscopy      #
                  #    Directorship and core code : Frank Neese         #
                  #        Max Planck Institute fuer Kohlenforschung    #
                  #                Kaiser Wilhelm Platz 1               #
                  #                 D-45470 Muelheim/Ruhr               #
                  #                      Germany                        #
                  #                                                     #
                  #                  All rights reserved                #
                  #                        -***-                        #
                  #######################################################


                         Program Version 5.0.3 -  RELEASE  -


 With contributions from (in alphabetic order):
   Daniel Aravena         : Magnetic Suceptibility
   Michael Atanasov       : Ab Initio Ligand Field Theory (pilot matlab implementation)
   Alexander A. Auer      : GIAO ZORA, VPT2 properties, NMR spectrum
   Ute Becker             : Parallelization
   Giovanni Bistoni       : ED, misc. LED, open-shell LED, HFLD
   Martin Brehm           : Molecular dynamics
   Dmytro Bykov           : SCF Hessian
   Vijay G. Chilkuri      : MRCI spin determinant printing, contributions to CSF-ICE
   Dipayan Datta          : RHF DLPNO-CCSD density
   Achintya Kumar Dutta   : EOM-CC, STEOM-CC
   Dmitry Ganyushin       : Spin-Orbit,Spin-Spin,Magnetic field MRCI
   Miquel Garcia          : C-PCM and meta-GGA Hessian, CC/C-PCM, Gaussian charge scheme
   Yang Guo               : DLPNO-NEVPT2, F12-NEVPT2, CIM, IAO-localization
   Andreas Hansen         : Spin unrestricted coupled pair/coupled cluster methods
   Benjamin Helmich-Paris : MC-RPA, TRAH-SCF, COSX integrals
   Lee Huntington         : MR-EOM, pCC
   Robert Izsak           : Overlap fitted RIJCOSX, COSX-SCS-MP3, EOM
   Marcus Kettner         : VPT2
   Christian Kollmar      : KDIIS, OOCD, Brueckner-CCSD(T), CCSD density, CASPT2, CASPT2-K
   Simone Kossmann        : Meta GGA functionals, TD-DFT gradient, OOMP2, MP2 Hessian
   Martin Krupicka        : Initial AUTO-CI
   Lucas Lang             : DCDCAS
   Marvin Lechner         : AUTO-CI (C++ implementation), FIC-MRCC
   Dagmar Lenk            : GEPOL surface, SMD
   Dimitrios Liakos       : Extrapolation schemes; Compound Job, initial MDCI parallelization
   Dimitrios Manganas     : Further ROCIS development; embedding schemes
   Dimitrios Pantazis     : SARC Basis sets
   Anastasios Papadopoulos: AUTO-CI, single reference methods and gradients
   Taras Petrenko         : DFT Hessian,TD-DFT gradient, ASA, ECA, R-Raman, ABS, FL, XAS/XES, NRVS
   Peter Pinski           : DLPNO-MP2, DLPNO-MP2 Gradient
   Christoph Reimann      : Effective Core Potentials
   Marius Retegan         : Local ZFS, SOC
   Christoph Riplinger    : Optimizer, TS searches, QM/MM, DLPNO-CCSD(T), (RO)-DLPNO pert. Triples
   Tobias Risthaus        : Range-separated hybrids, TD-DFT gradient, RPA, STAB
   Michael Roemelt        : Original ROCIS implementation
   Masaaki Saitow         : Open-shell DLPNO-CCSD energy and density
   Barbara Sandhoefer     : DKH picture change effects
   Avijit Sen             : IP-ROCIS
   Kantharuban Sivalingam : CASSCF convergence, NEVPT2, FIC-MRCI
   Bernardo de Souza      : ESD, SOC TD-DFT
   Georgi Stoychev        : AutoAux, RI-MP2 NMR, DLPNO-MP2 response
   Willem Van den Heuvel  : Paramagnetic NMR
   Boris Wezisla          : Elementary symmetry handling
   Frank Wennmohs         : Technical directorship


 We gratefully acknowledge several colleagues who have allowed us to
 interface, adapt or use parts of their codes:
   Stefan Grimme, W. Hujo, H. Kruse, P. Pracht,  : VdW corrections, initial TS optimization,
                  C. Bannwarth, S. Ehlert          DFT functionals, gCP, sTDA/sTD-DF
   Ed Valeev, F. Pavosevic, A. Kumar             : LibInt (2-el integral package), F12 methods
   Garnet Chan, S. Sharma, J. Yang, R. Olivares  : DMRG
   Ulf Ekstrom                                   : XCFun DFT Library
   Mihaly Kallay                                 : mrcc  (arbitrary order and MRCC methods)
   Jiri Pittner, Ondrej Demel                    : Mk-CCSD
   Frank Weinhold                                : gennbo (NPA and NBO analysis)
   Christopher J. Cramer and Donald G. Truhlar   : smd solvation model
   Lars Goerigk                                  : TD-DFT with DH, B97 family of functionals
   V. Asgeirsson, H. Jonsson                     : NEB implementation
   FAccTs GmbH                                   : IRC, NEB, NEB-TS, DLPNO-Multilevel, CI-OPT
                                                   MM, QMMM, 2- and 3-layer-ONIOM, Crystal-QMMM,
                                                   LR-CPCM, SF, NACMEs, symmetry and pop. for TD-DFT,
                                                   nearIR, NL-DFT gradient (VV10), updates on ESD,
                                                   ML-optimized integration grids
   S Lehtola, MJT Oliveira, MAL Marques          : LibXC Library
   Liviu Ungur et al                             : ANISO software


 Your calculation uses the libint2 library for the computation of 2-el integrals
 For citations please refer to: http://libint.valeyev.net

 Your ORCA version has been built with support for libXC version: 5.1.0
 For citations please refer to: https://tddft.org/programs/libxc/

 This ORCA versions uses:
   CBLAS   interface :  Fast vector & matrix operations
   LAPACKE interface :  Fast linear algebra routines
   SCALAPACK package :  Parallel linear algebra routines
   Shared memory     :  Shared parallel matrices
   BLAS/LAPACK       :  OpenBLAS 0.3.15  USE64BITINT DYNAMIC_ARCH NO_AFFINITY Haswell SINGLE_THREADED
        Core in use  :  Haswell
   Copyright (c) 2011-2014, The OpenBLAS Project




***************************************
The coordinates will be read from file: reactant_opt_unconstrained.xyz
***************************************


Your calculation utilizes the atom-pairwise dispersion correction
with the Becke-Johnson damping scheme (D3BJ)
Cite in your paper:
S.Grimme, S.Ehrlich, L.Goerigk, J Comput Chem, (2011), 32, 1456–1465 
S.Grimme, J.Antony, S.Ehrlich and H.Krieg, J.Chem.Phys., 132, (2010), 154104 
   

Your calculation utilizes a Nudged-Elastic-Band implementation
 by V.Asgeirsson, C. Riplinger & H. Jonsson
Please cite in your paper:
 V. Asgeirsson et al., in prep. (2019)
   

================================================================================

----- Orbital basis set information -----
Your calculation utilizes the basis: def2-TZVP
   F. Weigend and R. Ahlrichs, Phys. Chem. Chem. Phys. 7, 3297 (2005).

----- AuxJ basis set information -----
Your calculation utilizes the auxiliary basis: def2/J
   F. Weigend, Phys. Chem. Chem. Phys. 8, 1057 (2006).

================================================================================
                                        WARNINGS
                       Please study these warnings very carefully!
================================================================================


WARNING: Geometry Optimization
  ===> : Switching off AutoStart
         For restart on a previous wavefunction, please use MOREAD

INFO   : the flag for use of the SHARK integral package has been found!

================================================================================
                                       INPUT FILE
================================================================================
NAME = orca.inp
|  1> !B3LYP DEF2-TZVP D3BJ
|  2> !NEB-TS FREQ TightOPT TightSCF defgrid2
|  3> %SCF
|  4>     MaxIter 2000       # Here setting MaxIter to a very high number. Intended for systems that require sometimes 1000 iterations before converging (very rare).
|  5>     DIISMaxEq 5        # Default value is 5. A value of 15-40 necessary for difficult systems.
|  6>     directresetfreq 15 # Default value is 15. A value of 1 (very expensive) is sometimes required. A value between 1 and 15 may be more cost-effective.
|  7> END
|  8> %CPCM EPSILON 6.02 REFRAC 1.3723 END
|  9> %PAL NPROCS 32 END
| 10> %maxcore 2000 # This indicates you want ORCA to use only 2GB per core maximum, so ORCA will use only 2GB*32=64GB of memory in total.
| 11> %NEB
| 12>     NEB_END_XYZFILE "product_opt.xyz"
| 13>     Nimages 100
| 14>     Interpolation IDPP
| 15>     Opt_Method FIRE
| 16> END
| 17> * XYZfile 1 1 reactant_opt_unconstrained.xyz
| 18> 
| 19>                          ****END OF INPUT****
================================================================================


--------------------------------------------------------------------------------
                        Nudged Elastic Band Calculation
--------------------------------------------------------------------------------

Number of images (incl. end points)     ....  102
Number of intermediate images           ....  100
Number of optimized images              ....  100
Optimization of end points before NEB   ....  NO
Use existing gbw files for MO input     ....  NO
Number of atoms                         ....  18
Number of (active) degrees of freedom   ....  54
Constrained atoms                       ....  None

-----------------------------------------
  REACTANT (ANGSTROEM)
-----------------------------------------
C     -2.983016     1.805909     1.618166 
C     -1.890264     2.662351     1.508778 
C     -0.723388     2.407985     2.222229 
C     -0.659275     1.270597     3.042771 
C     -1.756465     0.420588     3.159633 
C     -2.922191     0.692619     2.449264 
H     -3.885584     2.013135     1.057595 
H     -3.774943     0.031730     2.534495 
H     -1.947080     3.535778     0.870370 
H      0.272793     1.019723     3.542888 
H     -1.692190    -0.459094     3.786937 
C      0.419449     3.388166     2.232339 
N      0.316093     4.232427     3.464312 
H      0.411941     4.014753     1.340039 
H      1.372801     2.863825     2.281353 
H      1.214410     4.651792     3.687901 
H     -0.327699     5.002730     3.298991 
Cu    -0.476922     3.075522     4.885386 

-----------------------------------------
  PRODUCT (ANGSTROEM)
-----------------------------------------
C     -2.990957     1.813887     1.613458 
C     -1.907360     2.667010     1.510144 
C     -0.730234     2.403506     2.234471 
C     -0.659696     1.266548     3.061268 
C     -1.747098     0.422571     3.158609 
C     -2.911274     0.692362     2.434639 
H     -3.895607     2.017813     1.057077 
H     -3.757444     0.022273     2.514110 
H     -1.954891     3.540233     0.872198 
H      0.237030     1.038069     3.622086 
H     -1.696077    -0.450664     3.794681 
C      0.347170     3.333412     2.080250 
N      1.522959     3.296015     2.748562 
H      0.163780     4.245652     1.524520 
H      1.761279     2.043288    -0.536808 
H      2.057217     4.155056     2.833712 
H      1.672737     2.625655     3.495355 
Cu     1.910925     2.501772     0.894708 



----------------------
NEB settings
----------------------
Method type                             ....  climbing image
Threshold for climbing image            ....  2.00e-01 Eh/Bohr 
Free endpoints                          ....  off 
Tangent type                            ....  improved 
Number of intermediate images           ....  100 
Number of images free to move           ....  100 
Spring type for image distribution      ....  distance between adjacent images 
Spring constant                         ....  energy weighted (0.0100 -to- 0.1000) Eh/Bohr^2 
Spring force perp. to the path          ....  none 
Generation of initial path              ....  image dependent pair potential 
Initial path via TS guess               ....  off 

Minimization of RMSD: Rotation          ....  always 
Minimization of RMSD: Translation type  ....  centroid 
Center fixed to origin                  ....  true 
Remove external force                   ....  true 

Reparametrization of the path           ....  off 
Convergence thresholds:
Convergence monitored for               ....  all images
Scaling factor                          ....  10.00

Convergence parameters for regular images:
               Max(|Fp|)                ....  2.00e-02 Eh/Bohr
               RMS(Fp)                  ....  1.00e-02 Eh/Bohr

Convergence parameters for climbing image:
               Max(|F|)                 ....  2.00e-03 Eh/Bohr
               RMS(F)                   ....  1.00e-03 Eh/Bohr
Optimization method:
Method                                  ....  FIRE (local)
Max. iterations                         ....  1000 
Step size                               ....  0.50 
Maximum allowed step size               ....  0.20 Bohr
FIRE parameters 
               Initial damp. factor     ....  0.10 
               Damp. factor decr.       ....  0.99 
               Step size incr.          ....  1.10 
               Step size decr.          ....  0.50 
               Max step size            ....  5.00 
               Retention index          ....   5
Generation of  the initial path:
Minimize RMSD between reactant and product configurations     .... done
       RMSD before minimization         ....  1.7277 Bohr
       RMSD after minimization          ....  1.3191 Bohr
Performing linear interpolation         ....  done
Interpolation using                     ....  IDPP (Image Dependent Pair Potential)
IDPP-Settings:
       Remove global transl. and rot.   ...   true
       Convergence tolerance            ....  0.0100 1/Ang.^3
       Max. numer of iterations         ....    7000
       Spring constant                  ....  1.0000 1/Ang.^4
       Time step                        ....  0.0100 fs
       Max. movement per iteration      ....  0.0500 Ang.
       Full print                       ....  false 
idpp initial path generation successfully converged in 77 iterations
Displacement along initial path:             11.9291 Bohr
Writing initial trajectory to file      ....  orca_initial_path_trj.xyz



----------------------
NEB OPTIMIZATION      
----------------------

Following output files will be written:
Energy profile during opt. written to    ....  orca.interp
Optimization log-file                    ....  orca.NEB.log
Current trajectory will be written to    ....  orca_MEP_trj.xyz
       and to allxyz file                ....  orca_MEP.allxyz
       and individual images to xyz file ....  orca_im{NIm}.xyz
Trajectory history will be written to    ....  orca_MEP_ALL_trj.xyz
Converged CI will be written to          ....  orca_NEB-CI_converged.xyz
Converged TS will be written to          ....  orca_NEB-TS_converged.xyz

Single point energy and gradient calculation of reactant and
product configurations (have to be performed only once)
Properties of fixed NEB end points:
               Reactant:
                         E               ....  -1967.196202 Eh
                         RMS(F)          ....      0.000033 Eh/Bohr
                         MAX(|F|)        ....      0.000108 Eh/Bohr
               Product:
                         E               ....  -1967.143424 Eh
                         RMS(F)          ....      0.000148 Eh/Bohr
                         MAX(|F|)        ....      0.000411 Eh/Bohr



Starting iterations:

Optim.  Iteration  HEI  E(HEI)-E(0)  max(|Fp|)   RMS(Fp)    dS
Switch-on CI threshold               0.200000 
    FIRE     0      49   0.139728    0.068082   0.010828  11.9291       

Image 49 will be converted to a climbing image in the next iteration (max(|Fp|) < 0.2000) 

Optim.  Iteration  CI   E(CI)-E(0)   max(|Fp|)   RMS(Fp)    dS     max(|FCI|)   RMS(FCI)
Convergence thresholds               0.020000   0.010000            0.002000    0.001000 
    FIRE     1      49   0.138441    0.066617   0.010419  11.9203    0.034327    0.009364       
    FIRE     2      49   0.136136    0.067699   0.009777  11.9066    0.035507    0.008679       
    FIRE     3      49   0.133106    0.068880   0.009157  11.8950    0.037275    0.008396       
    FIRE     4      49   0.129418    0.069882   0.008683  11.8922    0.039617    0.008570       
    FIRE     5      53   0.127620    0.070281   0.008352  11.9105    0.028686    0.007190       
    FIRE     6      53   0.123944    0.070032   0.007999  11.9604    0.030134    0.007022       
    FIRE     7      53   0.119272    0.089782   0.007914  12.0554    0.032065    0.006963       
    FIRE     8      53   0.113360    0.117089   0.008236  12.2193    0.034631    0.007357       
    FIRE     9      53   0.105622    0.141562   0.008600  12.4750    0.038048    0.007838       
    FIRE    10      55   0.099461    0.144341   0.008343  12.7857    0.026771    0.006182       
    FIRE    11      55   0.090623    0.136194   0.007675  13.1086    0.029239    0.005990       
    FIRE    12      55   0.081648    0.136004   0.006904  13.4253    0.032577    0.006051       
    FIRE    13      55   0.077168    0.118152   0.006000  13.7217    0.036168    0.008193       
    FIRE    14      55   0.077347    0.091071   0.005203  13.9884    0.035453    0.007951       
    FIRE    15      58   0.087966    0.065222   0.004461  13.8211    0.019015    0.003710       
    FIRE    16      58   0.087349    0.034887   0.004144  13.6708    0.015583    0.003259       
    FIRE    17      58   0.086731    0.034477   0.003947  13.6205    0.011886    0.002867       
    FIRE    18      58   0.086146    0.033602   0.003694  13.7549    0.008192    0.002555       
    FIRE    19      58   0.085559    0.032295   0.003367  14.0906    0.007705    0.002325       
    FIRE    20      58   0.084986    0.030533   0.003163  14.5730    0.008141    0.002258       
    FIRE    21      58   0.084411    0.028223   0.003104  15.0874    0.009228    0.002345       
    FIRE    22      58   0.083787    0.025836   0.002941  15.3340    0.010201    0.002417       
    FIRE    23      58   0.083066    0.022741   0.002657  15.2939    0.010200    0.002380       
    FIRE    24      58   0.082225    0.019791   0.002327  15.2520    0.008934    0.002241       
    FIRE    25      60   0.082530    0.018253   0.002099  15.3003    0.015480    0.002830       
    FIRE    26      60   0.082354    0.020005   0.002095  15.3061    0.014833    0.002753       
    FIRE    27      60   0.082137    0.023062   0.002153  15.3997    0.014030    0.002669       
    FIRE    28      60   0.081882    0.022548   0.002110  15.6884    0.013081    0.002583       
    FIRE    29      60   0.081593    0.023660   0.001988  15.9945    0.012002    0.002504       
    FIRE    30      60   0.081264    0.020585   0.001794  16.5005    0.010769    0.002439       
    FIRE    31      60   0.080891    0.015721   0.001589  17.0425    0.009335    0.002398       
    FIRE    32      60   0.080484    0.015984   0.001521  17.7462    0.008293    0.002401       
    FIRE    33      60   0.080063    0.019631   0.001676  18.8240    0.008940    0.002457       
    FIRE    34      60   0.079636    0.040390   0.002581  20.1739    0.009509    0.002530       
    FIRE    35      60   0.079220    0.022506   0.001675  20.2104    0.009831    0.002555       
    FIRE    36      60   0.078905    0.028417   0.001575  20.3602    0.009810    0.002530       
    FIRE    37      60   0.078933    0.032581   0.001537  20.4558    0.009773    0.002525       
    FIRE    38      60   0.078974    0.037344   0.001540  20.6155    0.009708    0.002516       
    FIRE    39      60   0.079014    0.041298   0.001452  20.9697    0.009621    0.002507       
    FIRE    40      60   0.079040    0.037070   0.001446  21.6153    0.009520    0.002501       
Warning: maximum angle between images (39 - 40 - 41): 164.30
    FIRE    41      60   0.079043    0.034180   0.001394  22.2031    0.009416    0.002498       
    FIRE    42      60   0.079024    0.033042   0.001350  23.0144    0.009313    0.002502       
    FIRE    43      60   0.078973    0.033285   0.001228  23.3476    0.009675    0.002515       
    FIRE    44      60   0.078879    0.033052   0.001221  24.1021    0.010368    0.002535       
    FIRE    45      60   0.078716    0.030045   0.001223  24.6758    0.010888    0.002554       
    FIRE    46      60   0.078431    0.025703   0.001257  24.5013    0.011033    0.002553       
    FIRE    47      60   0.077997    0.024760   0.001165  24.2718    0.010783    0.002531       
    FIRE    48      60   0.077387    0.028285   0.001193  24.0250    0.010040    0.002477       
    FIRE    49      60   0.076581    0.023613   0.001102  23.7882    0.009514    0.002394       
    FIRE    50      57   0.076406    0.021539   0.000952  23.5566    0.003530    0.000913       
Warning: maximum angle between images (38 - 39 - 40): 169.16
    FIRE    51      57   0.076207    0.024329   0.000968  23.3321    0.003431    0.000918       
    FIRE    52      57   0.076040    0.022346   0.000963  23.0045    0.003124    0.000907       
    FIRE    53      57   0.075935    0.018509   0.000918  22.8970    0.002776    0.000917       
    FIRE    54      57   0.075897    0.016662   0.000829  22.9661    0.003181    0.000905       
    FIRE    55      57   0.075901    0.014942   0.000780  23.0470    0.003288    0.000855       
    FIRE    56      57   0.075897    0.013523   0.000729  23.2737    0.002699    0.000764       
    FIRE    57      57   0.075829    0.012581   0.000718  23.6816    0.002040    0.000671       
    FIRE    58      57   0.075644    0.011931   0.000726  24.2508    0.001934    0.000782       

                                .--------------------.
          ----------------------| CI-NEB convergence |-------------------------
          Item                value                   Tolerance       Converged
          ---------------------------------------------------------------------
          RMS(Fp)             0.0007259350            0.0100000000      YES
          MAX(|Fp|)           0.0119313556            0.0200000000      YES
          RMS(FCI)            0.0007821229            0.0010000000      YES
          MAX(|FCI|)          0.0019337634            0.0020000000      YES
          ---------------------------------------------------------------------

The elastic band and climbing image have converged successfully to a MEP in 58 iterations!


                    *********************H U R R A Y*********************
                    ***        THE NEB OPTIMIZATION HAS CONVERGED     ***
                    *****************************************************



---------------------------------------------------------------
                         PATH SUMMARY              
---------------------------------------------------------------
All forces in Eh/Bohr.

Image Dist.(Ang.)    E(Eh)   dE(kcal/mol)  max(|Fp|)  RMS(Fp)
  0     0.000   -1967.19620      0.00       0.00011   0.00003
  1     0.052   -1967.19620      0.00       0.00030   0.00009
  2     0.104   -1967.19618      0.01       0.00006   0.00003
  3     0.156   -1967.19616      0.03       0.00015   0.00006
  4     0.206   -1967.19612      0.05       0.00015   0.00006
  5     0.255   -1967.19608      0.08       0.00015   0.00005
  6     0.295   -1967.19603      0.11       0.00055   0.00016
  7     0.344   -1967.19597      0.15       0.00052   0.00012
  8     0.394   -1967.19589      0.19       0.00060   0.00020
  9     0.447   -1967.19582      0.24       0.00046   0.00015
 10     0.501   -1967.19573      0.29       0.00058   0.00018
 11     0.554   -1967.19565      0.35       0.00033   0.00014
 12     0.606   -1967.19557      0.40       0.00036   0.00011
 13     0.659   -1967.19547      0.46       0.00122   0.00037
 14     0.707   -1967.19539      0.51       0.00132   0.00039
 15     0.730   -1967.19534      0.54       0.00147   0.00046
 16     0.756   -1967.19530      0.57       0.00158   0.00052
 17     0.793   -1967.19522      0.61       0.00103   0.00047
 18     0.829   -1967.19513      0.67       0.00234   0.00081
 19     1.003   -1967.19477      0.90       0.00125   0.00044
 20     1.129   -1967.19494      0.79       0.00119   0.00043
 21     1.265   -1967.19469      0.95       0.00095   0.00026
 22     1.347   -1967.19455      1.03       0.00163   0.00043
 23     1.413   -1967.19442      1.12       0.00092   0.00026
 24     1.468   -1967.19429      1.20       0.00081   0.00027
 25     1.513   -1967.19417      1.28       0.00106   0.00040
 26     1.604   -1967.19412      1.31       0.00206   0.00060
 27     1.708   -1967.19399      1.39       0.00190   0.00057
 28     1.832   -1967.19381      1.50       0.00073   0.00022
 29     1.947   -1967.19328      1.83       0.00101   0.00040
 30     2.087   -1967.19375      1.54       0.00114   0.00050
 31     2.206   -1967.19368      1.58       0.00062   0.00021
 32     2.350   -1967.19332      1.81       0.00108   0.00038
 33     2.463   -1967.19317      1.90       0.00562   0.00184
 34     2.602   -1967.19291      2.06       0.00237   0.00075
 35     2.672   -1967.19295      2.04       0.00202   0.00049
 36     2.805   -1967.19261      2.25       0.00093   0.00034
 37     2.920   -1967.19233      2.43       0.00100   0.00034
 38     3.037   -1967.19201      2.63       0.00142   0.00048
 39     3.169   -1967.19171      2.82       0.00095   0.00039
 40     3.259   -1967.19197      2.66       0.00173   0.00046
 41     3.448   -1967.19152      2.94       0.00101   0.00033
 42     3.687   -1967.19037      3.66       0.00150   0.00053
 43     3.953   -1967.19110      3.20       0.00155   0.00044
 44     4.105   -1967.19095      3.30       0.00084   0.00031
 45     4.232   -1967.19065      3.49       0.00098   0.00037
 46     4.339   -1967.19048      3.59       0.00150   0.00042
 47     4.560   -1967.18987      3.97       0.00131   0.00044
 48     4.836   -1967.18905      4.48       0.00096   0.00033
 49     5.070   -1967.18669      5.97       0.00103   0.00035
 50     5.298   -1967.18210      8.85       0.00081   0.00027
 51     5.526   -1967.17538     13.06       0.00058   0.00018
 52     5.664   -1967.17032     16.24       0.01193   0.00219
 53     6.261   -1967.18476      7.18       0.00609   0.00165
 54     6.945   -1967.16534     19.37       0.00627   0.00217
 55     7.401   -1967.13618     37.67       0.00378   0.00100
 56     7.624   -1967.12229     46.38       0.00883   0.00216
 57     7.826   -1967.12056     47.47       0.00185   0.00077 <= CI
 58     8.281   -1967.12731     43.23       0.00409   0.00115
 59     8.717   -1967.13114     40.83       0.00832   0.00208
 60     9.076   -1967.12675     43.58       0.00556   0.00151
 61     9.285   -1967.12232     46.36       0.01017   0.00218
 62     9.344   -1967.12387     45.39       0.00539   0.00106
 63     9.443   -1967.12664     43.65       0.00170   0.00037
 64     9.526   -1967.12802     42.78       0.00786   0.00146
 65     9.599   -1967.12974     41.70       0.00125   0.00037
 66     9.706   -1967.13203     40.27       0.00077   0.00018
 67     9.853   -1967.13457     38.68       0.00080   0.00024
 68    10.031   -1967.13685     37.25       0.00191   0.00059
 69    10.246   -1967.13841     36.27       0.00186   0.00055
 70    10.456   -1967.13989     35.33       0.00190   0.00061
 71    10.579   -1967.13946     35.61       0.00248   0.00082
 72    10.657   -1967.13968     35.47       0.00217   0.00067
 73    10.820   -1967.14041     35.01       0.00256   0.00070
 74    10.973   -1967.14112     34.56       0.00223   0.00079
 75    11.028   -1967.14123     34.50       0.00644   0.00137
 76    11.091   -1967.14129     34.46       0.00137   0.00066
 77    11.170   -1967.14138     34.40       0.00159   0.00066
 78    11.320   -1967.14142     34.38       0.00169   0.00066
 79    11.382   -1967.14136     34.41       0.00159   0.00047
 80    11.518   -1967.14173     34.18       0.00177   0.00045
 81    11.625   -1967.14190     34.08       0.00150   0.00048
 82    11.694   -1967.14219     33.89       0.00090   0.00035
 83    11.777   -1967.14186     34.10       0.00154   0.00045
 84    11.813   -1967.14199     34.02       0.00106   0.00035
 85    11.918   -1967.14224     33.86       0.00106   0.00037
 86    12.021   -1967.14261     33.63       0.00139   0.00041
 87    12.122   -1967.14248     33.71       0.00099   0.00033
 88    12.159   -1967.14253     33.68       0.00110   0.00031
 89    12.211   -1967.14266     33.59       0.00089   0.00027
 90    12.248   -1967.14278     33.52       0.00080   0.00022
 91    12.285   -1967.14286     33.47       0.00069   0.00025
 92    12.335   -1967.14297     33.40       0.00057   0.00021
 93    12.390   -1967.14308     33.34       0.00051   0.00018
 94    12.443   -1967.14317     33.28       0.00044   0.00016
 95    12.500   -1967.14326     33.22       0.00038   0.00013
 96    12.557   -1967.14333     33.18       0.00032   0.00011
 97    12.611   -1967.14338     33.15       0.00027   0.00009
 98    12.665   -1967.14342     33.12       0.00021   0.00007
 99    12.720   -1967.14345     33.11       0.00015   0.00005
100    12.777   -1967.14346     33.10       0.00012   0.00002
101    12.833   -1967.14342     33.12       0.00040   0.00015

Straight line distance between images along the path:
        D( 0- 1) =   0.0521 Ang.
        D( 1- 2) =   0.0518 Ang.
        D( 2- 3) =   0.0516 Ang.
        D( 3- 4) =   0.0510 Ang.
        D( 4- 5) =   0.0485 Ang.
        D( 5- 6) =   0.0403 Ang.
        D( 6- 7) =   0.0492 Ang.
        D( 7- 8) =   0.0493 Ang.
        D( 8- 9) =   0.0532 Ang.
        D( 9-10) =   0.0539 Ang.
        D(10-11) =   0.0529 Ang.
        D(11-12) =   0.0523 Ang.
        D(12-13) =   0.0531 Ang.
        D(13-14) =   0.0482 Ang.
        D(14-15) =   0.0225 Ang.
        D(15-16) =   0.0263 Ang.
        D(16-17) =   0.0370 Ang.
        D(17-18) =   0.0361 Ang.
        D(18-19) =   0.1740 Ang.
        D(19-20) =   0.1258 Ang.
        D(20-21) =   0.1361 Ang.
        D(21-22) =   0.0815 Ang.
        D(22-23) =   0.0660 Ang.
        D(23-24) =   0.0551 Ang.
        D(24-25) =   0.0449 Ang.
        D(25-26) =   0.0912 Ang.
        D(26-27) =   0.1041 Ang.
        D(27-28) =   0.1240 Ang.
        D(28-29) =   0.1154 Ang.
        D(29-30) =   0.1394 Ang.
        D(30-31) =   0.1196 Ang.
        D(31-32) =   0.1436 Ang.
        D(32-33) =   0.1130 Ang.
        D(33-34) =   0.1386 Ang.
        D(34-35) =   0.0707 Ang.
        D(35-36) =   0.1322 Ang.
        D(36-37) =   0.1159 Ang.
        D(37-38) =   0.1165 Ang.
        D(38-39) =   0.1318 Ang.
        D(39-40) =   0.0906 Ang.
        D(40-41) =   0.1884 Ang.
        D(41-42) =   0.2394 Ang.
        D(42-43) =   0.2659 Ang.
        D(43-44) =   0.1525 Ang.
        D(44-45) =   0.1262 Ang.
        D(45-46) =   0.1077 Ang.
        D(46-47) =   0.2205 Ang.
        D(47-48) =   0.2765 Ang.
        D(48-49) =   0.2337 Ang.
        D(49-50) =   0.2282 Ang.
        D(50-51) =   0.2275 Ang.
        D(51-52) =   0.1380 Ang.
        D(52-53) =   0.5970 Ang.
        D(53-54) =   0.6842 Ang.
        D(54-55) =   0.4561 Ang.
        D(55-56) =   0.2227 Ang.
        D(56-57) =   0.2019 Ang.
        D(57-58) =   0.4550 Ang.
        D(58-59) =   0.4360 Ang.
        D(59-60) =   0.3589 Ang.
        D(60-61) =   0.2096 Ang.
        D(61-62) =   0.0588 Ang.
        D(62-63) =   0.0986 Ang.
        D(63-64) =   0.0837 Ang.
        D(64-65) =   0.0725 Ang.
        D(65-66) =   0.1070 Ang.
        D(66-67) =   0.1467 Ang.
        D(67-68) =   0.1783 Ang.
        D(68-69) =   0.2147 Ang.
        D(69-70) =   0.2101 Ang.
        D(70-71) =   0.1237 Ang.
        D(71-72) =   0.0778 Ang.
        D(72-73) =   0.1626 Ang.
        D(73-74) =   0.1537 Ang.
        D(74-75) =   0.0550 Ang.
        D(75-76) =   0.0628 Ang.
        D(76-77) =   0.0790 Ang.
        D(77-78) =   0.1500 Ang.
        D(78-79) =   0.0615 Ang.
        D(79-80) =   0.1366 Ang.
        D(80-81) =   0.1072 Ang.
        D(81-82) =   0.0684 Ang.
        D(82-83) =   0.0827 Ang.
        D(83-84) =   0.0364 Ang.
        D(84-85) =   0.1052 Ang.
        D(85-86) =   0.1034 Ang.
        D(86-87) =   0.1008 Ang.
        D(87-88) =   0.0371 Ang.
        D(88-89) =   0.0517 Ang.
        D(89-90) =   0.0367 Ang.
        D(90-91) =   0.0369 Ang.
        D(91-92) =   0.0508 Ang.
        D(92-93) =   0.0542 Ang.
        D(93-94) =   0.0539 Ang.
        D(94-95) =   0.0564 Ang.
        D(95-96) =   0.0571 Ang.
        D(96-97) =   0.0540 Ang.
        D(97-98) =   0.0536 Ang.
        D(98-99) =   0.0554 Ang.
        D(99-100) =   0.0573 Ang.
        D(100-101) =   0.0558 Ang.

---------------------------------------------------------------
               INFORMATION ABOUT SADDLE POINT     
---------------------------------------------------------------

Climbing image                            ....  57 
Energy                                    ....  -1967.12055767 Eh
Max. abs. force                           ....  1.9338e-03 Eh/Bohr

-----------------------------------------
  SADDLE POINT (ANGSTROEM)
-----------------------------------------
C     -1.770277    -0.719464    -1.346618 
C     -0.741467     0.209247    -1.241939 
C      0.141715     0.152693    -0.164280 
C     -0.014895    -0.836817     0.809055 
C     -1.033248    -1.768280     0.696067 
C     -1.910749    -1.714924    -0.384275 
H     -2.453582    -0.672199    -2.183762 
H     -2.690265    -2.457598    -0.482993 
H     -0.626240     0.980733    -1.994691 
H      0.684594    -0.898027     1.635149 
H     -1.130439    -2.548686     1.439734 
C      1.221984     1.158560    -0.078630 
N      1.297003     1.948720     1.095603 
H      1.393149     1.721261    -0.985483 
H      2.592185     0.085631    -0.475658 
H      1.551582     2.917632     0.960547 
H      0.579726     1.801329     1.790788 
Cu     2.909225     0.640188     0.911386 

-----------------------------------------
  FORCES (Eh/Bohr)
-----------------------------------------
C     -0.000133    -0.001438     0.001125 
C      0.000222     0.000687    -0.000847 
C      0.000530    -0.000555     0.000756 
C      0.000281     0.000707    -0.000404 
C     -0.000417    -0.000845     0.000797 
C      0.000216     0.001173    -0.001264 
H     -0.000121    -0.000041    -0.000338 
H     -0.001011    -0.000059     0.000185 
H      0.000222    -0.000711     0.000250 
H     -0.000173    -0.000606     0.000164 
H     -0.000492     0.000132    -0.000088 
C      0.000598    -0.000060     0.000776 
N      0.000154     0.000496    -0.001263 
H      0.001535    -0.000165    -0.000197 
H     -0.001853     0.000755    -0.001058 
H     -0.001255     0.000746     0.000461 
H     -0.000423    -0.001011     0.001190 
Cu     0.001934     0.000622    -0.000203 

-----------------------------------------
  UNIT TANGENT
-----------------------------------------
C      0.006598    -0.003237    -0.027269 
C      0.011178    -0.015449    -0.033780 
C     -0.036662     0.012264     0.010590 
C     -0.018975     0.007637     0.004663 
C     -0.024269     0.020575     0.008406 
C     -0.021076     0.022990     0.004856 
H      0.017047    -0.016470    -0.035049 
H     -0.024085     0.029105     0.007002 
H      0.025938    -0.021686    -0.041856 
H      0.008759     0.015592    -0.021908 
H     -0.047579     0.041209     0.027262 
C     -0.223749     0.144767     0.092287 
N     -0.130131     0.059498     0.011739 
H     -0.025080     0.022989     0.066709 
H      0.567399    -0.512662    -0.035715 
H     -0.109169     0.049653     0.061831 
H      0.116420    -0.108922     0.241115 
Cu    -0.092563     0.252148    -0.340883 
 => Unit tangent is an approximation to the TS mode at the saddle point

Next a TS optimization is performed on the CI from the NEB run.

         *************************************************************
         *                       TS OPTIMIZATION                     *
         *************************************************************


Following output files will be written:
Converged TS will be written to          ....  orca_NEB-TS_converged.xyz
                                         ....  orca.xyz
Current trajectory will be written to    ....  orca_trj.xyz
Initial Hessian will be stored in        ....  orca.appr.hess
Geometry optimization settings:
Update method            Update   .... Bofill
Choice of coordinates    CoordSys .... Z-matrix Internals
Initial Hessian          InHess   .... Read

Convergence Tolerances:
Energy Change            TolE     ....  1.0000e-06 Eh
Max. Gradient            TolMAXG  ....  1.0000e-04 Eh/bohr
RMS Gradient             TolRMSG  ....  3.0000e-05 Eh/bohr
Max. Displacement        TolMAXD  ....  1.0000e-03 bohr
RMS Displacement         TolRMSD  ....  6.0000e-04 bohr
Strict Convergence                ....  False
------------------------------------------------------------------------------
                        ORCA OPTIMIZATION COORDINATE SETUP
------------------------------------------------------------------------------

The optimization will be done in new redundant internal coordinates
Making redundant internal coordinates   ...  (new redundants) done
Following TS mode number                ...     0
TS-active-atoms for coordinate setup... 14 17 
Evaluating the initial hessian          ... (Reading Exact Hessian)...  
InHessName: orca.appr.hess	The file <orca.appr.hess> is opened as a .hess file
done
done
Diagonalizing the Hessian               .... done
Dimension of the hessian                .... 105
Lowest eigenvalues of the non projected Hessian:
 -0.030678016 -0.000000000 -0.000000000 -0.000000000 -0.000000000
done
Evaluating the coordinates              ...  done
Calculating the B-matrix                .... done
Calculating the G-matrix                .... done
Diagonalizing the G-matrix              .... done
The first mode is                       ....   57
The number of degrees of freedom        ....   48

    -----------------------------------------------------------------
                    Redundant Internal Coordinates


    -----------------------------------------------------------------
         Definition                    Initial Value    d2E/dq (diagonal element)
    -----------------------------------------------------------------
      1. B(C   1,C   0)                  1.3899         0.577351   
      2. B(C   2,C   1)                  1.3945         0.567102   
      3. B(C   3,C   2)                  1.3968         0.529618   
      4. B(C   4,C   3)                  1.3847         0.588647   
      5. B(C   5,C   4)                  1.3928         0.570696   
      6. B(C   5,C   0)                  1.3917         0.572916   
      7. B(H   6,C   0)                  1.0816         0.371393   
      8. B(H   7,C   5)                  1.0812         0.371953   
      9. B(H   8,C   1)                  1.0840         0.368120   
     10. B(H   9,C   3)                  1.0842         0.367878   
     11. B(H  10,C   4)                  1.0824         0.370350   
     12. B(C  11,C   2)                  1.4785         0.306471   
     13. B(N  12,C  11)                  1.4173         0.409114   
     14. B(H  13,C  11)                  1.0809         0.266351   
     15. B(H  15,N  12)                  1.0109         0.302635   
     16. B(H  16,N  12)                  1.0097         0.278493   
     17. B(Cu 17,H  16)                  2.7474         0.081251   
     18. B(Cu 17,H  13)                  2.6581         0.083703   
     19. B(Cu 17,C   3)                  3.2776         0.052152   
     20. B(Cu 17,C   2)                  3.0090         0.098133   
     21. B(Cu 17,H  14)                  1.5271         0.753822   
     22. B(Cu 17,H  15)                  2.6519         0.079527   
     23. B(Cu 17,N  12)                  2.0846         0.120040   
     24. B(Cu 17,C  11)                  2.0238         0.162107   
     25. A(C   5,C   0,H   6)          120.1774         0.217266   
     26. A(C   1,C   0,H   6)          119.7812         0.217203   
     27. A(C   1,C   0,C   5)          120.0378         0.158909   
     28. A(C   0,C   1,H   8)          120.1265         0.215974   
     29. A(C   2,C   1,H   8)          119.8798         0.215740   
     30. A(C   0,C   1,C   2)          119.9932         0.155000   
     31. A(C   3,C   2,C  11)          121.5669         0.057548   
     32. A(C   1,C   2,C  11)          118.6801         0.167056   
     33. A(C   1,C   2,C   3)          119.7513         0.138997   
     34. A(C   2,C   3,C   4)          120.1411         0.157891   
     35. A(C   2,C   3,H   9)          119.9080         0.216061   
     36. A(C   4,C   3,H   9)          119.9122         0.216558   
     37. A(C   3,C   4,C   5)          120.0560         0.159507   
     38. A(C   3,C   4,H  10)          119.6688         0.217590   
     39. A(C   5,C   4,H  10)          120.2631         0.217332   
     40. A(C   0,C   5,C   4)          120.0108         0.159056   
     41. A(C   4,C   5,H   7)          119.9163         0.217087   
     42. A(C   0,C   5,H   7)          120.0648         0.217176   
     43. A(H  13,C  11,Cu 17)          114.3150         0.026574   
     44. A(N  12,C  11,Cu 17)           72.1443         0.027519   
     45. A(C   2,C  11,Cu 17)          117.5951         0.029682   
     46. A(N  12,C  11,H  13)          113.3583         0.035477   
     47. A(C   2,C  11,H  13)          114.9143         0.062979   
     48. A(C   2,C  11,N  12)          117.7711         0.040448   
     49. A(H  16,N  12,Cu 17)          121.2404         0.029143   
     50. A(H  15,N  12,Cu 17)          113.2715         0.028791   
     51. A(C  11,N  12,Cu 17)           67.5279         0.029581   
     52. A(H  15,N  12,H  16)          114.2559         0.065510   
     53. A(C  11,N  12,H  16)          116.8358         0.036678   
     54. A(C  11,N  12,H  15)          115.9130         0.039197   
     55. A(C  11,Cu 17,N  12)           40.3278         0.034581   
     56. A(N  12,Cu 17,H  14)           98.4912         0.070428   
     57. A(C  11,Cu 17,H  14)           58.3715         0.050208   
     58. D(C   2,C   1,C   0,C   5)     -0.7053         0.009127   
     59. D(C   2,C   1,C   0,H   6)    179.9781         0.009634   
     60. D(H   8,C   1,C   0,C   5)    179.5423         0.009748   
     61. D(H   8,C   1,C   0,H   6)      0.2257         0.011886   
     62. D(C   3,C   2,C   1,C   0)     -0.1985         0.007591   
     63. D(C  11,C   2,C   1,H   8)      0.0132         0.011037   
     64. D(C  11,C   2,C   1,C   0)   -179.7398         0.008803   
     65. D(C   3,C   2,C   1,H   8)    179.5544         0.008795   
     66. D(H   9,C   3,C   2,C  11)     -1.9540         0.010093   
     67. D(H   9,C   3,C   2,C   1)    178.5184         0.008790   
     68. D(C   4,C   3,C   2,C  11)   -179.6859         0.011266   
     69. D(C   4,C   3,C   2,C   1)      0.7865         0.008723   
     70. D(C   5,C   4,C   3,H   9)   -178.1998         0.009899   
     71. D(H  10,C   4,C   3,C   2)    178.2705         0.011174   
     72. D(C   5,C   4,C   3,C   2)     -0.4680         0.009697   
     73. D(H  10,C   4,C   3,H   9)      0.5387         0.012187   
     74. D(H   7,C   5,C   4,H  10)     -0.2093         0.012034   
     75. D(C   0,C   5,C   4,H  10)   -179.1696         0.009756   
     76. D(C   0,C   5,C   4,C   3)     -0.4387         0.008939   
     77. D(H   7,C   5,C   0,H   6)      1.3814         0.012073   
     78. D(H   7,C   5,C   4,C   3)    178.5216         0.009676   
     79. D(C   4,C   5,C   0,H   6)   -179.6598         0.009702   
     80. D(C   4,C   5,C   0,C   1)      1.0263         0.009500   
     81. D(H   7,C   5,C   0,C   1)   -177.9325         0.010348   
     82. D(Cu 17,C  11,C   2,C   3)     27.2406         0.015461   
     83. D(Cu 17,C  11,C   2,C   1)   -153.2269         0.013958   
     84. D(H  13,C  11,C   2,C   3)    166.2708         0.023279   
     85. D(H  13,C  11,C   2,C   1)    -14.1967         0.018312   
     86. D(N  12,C  11,C   2,C   3)    -56.1110         0.020721   
     87. D(N  12,C  11,C   2,C   1)    123.4215         0.017621   
     88. D(H  15,N  12,C  11,C   2)   -141.7181         0.041241   
     89. D(Cu 17,N  12,C  11,H  13)   -109.3954         0.027910   
     90. D(Cu 17,N  12,C  11,C   2)    112.3571         0.032676   
     91. D(H  16,N  12,C  11,Cu 17)   -114.8166         0.032387   
     92. D(H  16,N  12,C  11,H  13)    135.7880         0.035071   
     93. D(H  16,N  12,C  11,C   2)     -2.4595         0.041559   
     94. D(H  15,N  12,C  11,Cu 17)    105.9248         0.029242   
     95. D(H  15,N  12,C  11,H  13)     -3.4706         0.036375   
     96. D(H  14,Cu 17,N  12,H  16)    114.3230         0.029611   
     97. D(H  14,Cu 17,N  12,C  11)      5.6315         0.007346   
     98. D(C  11,Cu 17,N  12,H  16)    108.6915         0.042153   
     99. D(C  11,Cu 17,N  12,H  15)   -109.6882         0.040685   
    100. D(H  14,Cu 17,C  11,H  13)    -65.3030         0.022775   
    101. D(H  14,Cu 17,C  11,N  12)   -173.4549         0.010417   
    102. D(H  14,Cu 17,C  11,C   2)     73.9647         0.024069   
    103. D(H  14,Cu 17,N  12,H  15)   -104.0567         0.031285   
    104. D(N  12,Cu 17,C  11,H  13)    108.1519         0.037648   
    105. D(N  12,Cu 17,C  11,C   2)   -112.5804         0.044898   
    -----------------------------------------------------------------

Number of atoms                         .... 18
Number of degrees of freedom            .... 105

         *************************************************************
         *                GEOMETRY OPTIMIZATION CYCLE   1            *
         *************************************************************


           ************************************************************
           *        Program running with 32 parallel MPI-processes    *
           *              working on a common directory               *
           ************************************************************
------------------------------------------------------------------------------
                           ORCA GTO INTEGRAL CALCULATION
                           -- RI-GTO INTEGRALS CHOSEN --
------------------------------------------------------------------------------
------------------------------------------------------------------------------
                   ___                                                        
                  /   \      - P O W E R E D   B Y -                         
                 /     \                                                     
                 |  |  |   _    _      __       _____    __    __             
                 |  |  |  | |  | |    /  \     |  _  \  |  |  /  |          
                  \  \/   | |  | |   /    \    | | | |  |  | /  /          
                 / \  \   | |__| |  /  /\  \   | |_| |  |  |/  /          
                |  |  |   |  __  | /  /__\  \  |    /   |      \           
                |  |  |   | |  | | |   __   |  |    \   |  |\   \          
                \     /   | |  | | |  |  |  |  | |\  \  |  | \   \       
                 \___/    |_|  |_| |__|  |__|  |_| \__\ |__|  \__/        
                                                                              
                      - O R C A' S   B I G   F R I E N D -                    
                                      &                                       
                       - I N T E G R A L  F E E D E R -                       
                                                                              
 v1 FN, 2020, v2 2021                                                         
------------------------------------------------------------------------------


Reading SHARK input file orca.SHARKINP.tmp ... ok
----------------------
SHARK INTEGRAL PACKAGE
----------------------

Number of atoms                             ...     18
Number of basis functions                   ...    347
Number of shells                            ...    139
Maximum angular momentum                    ...      3
Integral batch strategy                     ... SHARK/LIBINT Hybrid
RI-J (if used) integral strategy            ... SPLIT-RIJ (Revised 2003 algorithm where possible)
Printlevel                                  ...      1
Contraction scheme used                     ... SEGMENTED contraction
Coulomb Range Separation                    ... NOT USED
Exchange Range Separation                   ... NOT USED
Finite Nucleus Model                        ... NOT USED
Auxiliary Coulomb fitting basis             ... AVAILABLE
   # of basis functions in Aux-J            ...    582
   # of shells in Aux-J                     ...    188
   Maximum angular momentum in Aux-J        ...      4
Auxiliary J/K fitting basis                 ... NOT available
Auxiliary Correlation fitting basis         ... NOT available
Auxiliary 'external' fitting basis          ... NOT available
Integral threshold                          ...     2.500000e-11
Primitive cut-off                           ...     2.500000e-12
Primitive pair pre-selection threshold      ...     2.500000e-12

Calculating pre-screening integrals         ... done (  0.2 sec) Dimension = 139
Organizing shell pair data                  ... done (  0.7 sec)
Shell pair information
Total number of shell pairs                 ...      9730
Shell pairs after pre-screening             ...      8641
Total number of primitive shell pairs       ...     31637
Primitive shell pairs kept                  ...     20299
          la=0 lb=0:   2309 shell pairs
          la=1 lb=0:   2403 shell pairs
          la=1 lb=1:    646 shell pairs
          la=2 lb=0:   1313 shell pairs
          la=2 lb=1:    686 shell pairs
          la=2 lb=2:    198 shell pairs
          la=3 lb=0:    578 shell pairs
          la=3 lb=1:    304 shell pairs
          la=3 lb=2:    164 shell pairs
          la=3 lb=3:     40 shell pairs

Calculating one electron integrals          ... done (  0.3 sec)
Calculating RI/J V-Matrix + Cholesky decomp.... done (  2.3 sec)
Calculating Nuclear repulsion               ... done (  0.0 sec) ENN=    615.430514800705 Eh

SHARK setup successfully completed in   6.0 seconds

Maximum memory used throughout the entire GTOINT-calculation: 25.6 MB


           ************************************************************
           *        Program running with 32 parallel MPI-processes    *
           *              working on a common directory               *
           ************************************************************
-------------------------------------------------------------------------------
                                 ORCA SCF
-------------------------------------------------------------------------------

------------
SCF SETTINGS
------------
Hamiltonian:
 Density Functional     Method          .... DFT(GTOs)
 Exchange Functional    Exchange        .... B88
   X-Alpha parameter    XAlpha          ....  0.666667
   Becke's b parameter  XBeta           ....  0.004200
 Correlation Functional Correlation     .... LYP
 LDA part of GGA corr.  LDAOpt          .... VWN-5
 Gradients option       PostSCFGGA      .... off
 Hybrid DFT is turned on
   Fraction HF Exchange ScalHFX         ....  0.200000
   Scaling of DF-GGA-X  ScalDFX         ....  0.720000
   Scaling of DF-GGA-C  ScalDFC         ....  0.810000
   Scaling of DF-LDA-C  ScalLDAC        ....  1.000000
   Perturbative correction              ....  0.000000
   Density functional embedding theory  .... OFF
   NL short-range parameter             ....  4.800000
 RI-approximation to the Coulomb term is turned on
   Number of AuxJ basis functions       .... 582
   RIJ-COSX (HFX calculated with COS-X)).... on


General Settings:
 Integral files         IntName         .... orca
 Hartree-Fock type      HFTyp           .... RHF
 Total Charge           Charge          ....    1
 Multiplicity           Mult            ....    1
 Number of Electrons    NEL             ....   86
 Basis Dimension        Dim             ....  347
 Nuclear Repulsion      ENuc            ....    615.4305148007 Eh

Convergence Acceleration:
 DIIS                   CNVDIIS         .... on
   Start iteration      DIISMaxIt       ....    12
   Startup error        DIISStart       ....  0.200000
   # of expansion vecs  DIISMaxEq       ....     5
   Bias factor          DIISBfac        ....   1.050
   Max. coefficient     DIISMaxC        ....  10.000
 Trust-Rad. Augm. Hess. CNVTRAH         .... auto
   Auto Start mean grad. ratio tolernc. ....  1.125000
   Auto Start start iteration           ....     1
   Auto Start num. interpolation iter.  ....    10
   Max. Number of Micro iterations      ....    16
   Max. Number of Macro iterations      .... Maxiter - #DIIS iter
   Number of Davidson start vectors     ....     2
   Converg. threshold I  (grad. norm)   ....   1.000e-05
   Converg. threshold II (energy diff.) ....   1.000e-08
   Grad. Scal. Fac. for Micro threshold ....   0.100
   Minimum threshold for Micro iter.    ....   0.010
   NR start threshold (gradient norm)   ....   0.001
   Initial trust radius                 ....   0.400
   Minimum AH scaling param. (alpha)    ....   1.000
   Maximum AH scaling param. (alpha)    .... 1000.000
   Orbital update algorithm             .... Taylor
   White noise on init. David. guess    .... on
   Maximum white noise                  ....   0.010
   Quad. conv. algorithm                .... NR
 SOSCF                  CNVSOSCF        .... off
 Level Shifting         CNVShift        .... on
   Level shift para.    LevelShift      ....    0.2500
   Turn off err/grad.   ShiftErr        ....    0.0010
 Zerner damping         CNVZerner       .... off
 Static damping         CNVDamp         .... on
   Fraction old density DampFac         ....    0.7000
   Max. Damping (<1)    DampMax         ....    0.9800
   Min. Damping (>=0)   DampMin         ....    0.0000
   Turn off err/grad.   DampErr         ....    0.1000
 Fernandez-Rico         CNVRico         .... off

SCF Procedure:
 Maximum # iterations   MaxIter         ....  2000
 SCF integral mode      SCFMode         .... Direct
   Integral package                     .... SHARK and LIBINT hybrid scheme
 Reset frequency        DirectResetFreq ....    15
 Integral Threshold     Thresh          ....  2.500e-11 Eh
 Primitive CutOff       TCut            ....  2.500e-12 Eh

Convergence Tolerance:
 Convergence Check Mode ConvCheckMode   .... Total+1el-Energy
 Convergence forced     ConvForced      .... 0
 Energy Change          TolE            ....  1.000e-08 Eh
 1-El. energy change                    ....  1.000e-05 Eh
 DIIS Error             TolErr          ....  5.000e-07


Diagonalization of the overlap matrix:
Smallest eigenvalue                        ... 8.449e-06
Time for diagonalization                   ...    0.078 sec
Threshold for overlap eigenvalues          ... 1.000e-08
Number of eigenvalues below threshold      ... 0
Time for construction of square roots      ...    0.594 sec
Total time needed                          ...    1.238 sec

---------------------
INITIAL GUESS: MOREAD
---------------------
Guess MOs are being read from file: orca.gbw
Input Geometry matches current geometry (good)
Input basis set matches current basis set (good)
MOs were renormalized
MOs were reorthogonalized (Cholesky)
                      ------------------
                      INITIAL GUESS DONE (   0.3 sec)
                      ------------------
-------------------
DFT GRID GENERATION
-------------------

General Integration Accuracy     IntAcc      ... 4.388
Radial Grid Type                 RadialGrid  ... OptM3 with GC (2021)
Angular Grid (max. ang.)         AngularGrid ... 4 (Lebedev-302)
Angular grid pruning method      GridPruning ... 4 (adaptive)
Weight generation scheme         WeightScheme... Becke
Basis function cutoff            BFCut       ... 1.0000e-11
Integration weight cutoff        WCut        ... 1.0000e-14
Angular grids for H and He will be reduced by one unit
Partially contracted basis set               ... off
Rotationally invariant grid construction     ... off

Total number of grid points                  ...    88078
Total number of batches                      ...     1387
Average number of points per batch           ...       63
Average number of grid points per atom       ...     4893
Time for grid setup =    4.164 sec

--------------------
COSX GRID GENERATION
--------------------

GRIDX 1
-------
General Integration Accuracy     IntAcc      ... 3.816
Radial Grid Type                 RadialGrid  ... OptM3 with GC (2021)
Angular Grid (max. ang.)         AngularGrid ... 1 (Lebedev-50)
Angular grid pruning method      GridPruning ... 4 (adaptive)
Weight generation scheme         WeightScheme... Becke
Basis function cutoff            BFCut       ... 1.0000e-11
Integration weight cutoff        WCut        ... 1.0000e-14
Angular grids for H and He will be reduced by one unit
Partially contracted basis set               ... on
Rotationally invariant grid construction     ... off

Total number of grid points                  ...    11016
Total number of batches                      ...      179
Average number of points per batch           ...       61
Average number of grid points per atom       ...      612
UseSFitting                                  ... on

GRIDX 2
-------
General Integration Accuracy     IntAcc      ... 4.020
Radial Grid Type                 RadialGrid  ... OptM3 with GC (2021)
Angular Grid (max. ang.)         AngularGrid ... 2 (Lebedev-110)
Angular grid pruning method      GridPruning ... 4 (adaptive)
Weight generation scheme         WeightScheme... Becke
Basis function cutoff            BFCut       ... 1.0000e-11
Integration weight cutoff        WCut        ... 1.0000e-14
Angular grids for H and He will be reduced by one unit
Partially contracted basis set               ... on
Rotationally invariant grid construction     ... off

Total number of grid points                  ...    23738
Total number of batches                      ...      379
Average number of points per batch           ...       62
Average number of grid points per atom       ...     1319
UseSFitting                                  ... on

GRIDX 3
-------
General Integration Accuracy     IntAcc      ... 4.338
Radial Grid Type                 RadialGrid  ... OptM3 with GC (2021)
Angular Grid (max. ang.)         AngularGrid ... 3 (Lebedev-194)
Angular grid pruning method      GridPruning ... 4 (adaptive)
Weight generation scheme         WeightScheme... Becke
Basis function cutoff            BFCut       ... 1.0000e-11
Integration weight cutoff        WCut        ... 1.0000e-14
Angular grids for H and He will be reduced by one unit
Partially contracted basis set               ... on
Rotationally invariant grid construction     ... off

Total number of grid points                  ...    52263
Total number of batches                      ...      825
Average number of points per batch           ...       63
Average number of grid points per atom       ...     2904
UseSFitting                                  ... on

Time for X-Grid setup             =    8.825 sec


--------------------
CPCM SOLVATION MODEL
--------------------
CPCM parameters:
  Epsilon                                         ...       6.0200
  Refrac                                          ...       1.3723
  Rsolv                                           ...       1.3000
  Surface type                                    ... GAUSSIAN VDW
  Epsilon function type                           ...         CPCM
Radii:
 Radius for C  used is    3.8550 Bohr (=   2.0400 Ang.)
 Radius for H  used is    2.4944 Bohr (=   1.3200 Ang.)
 Radius for N  used is    3.5149 Bohr (=   1.8600 Ang.)
 Radius for Cu used is    3.1747 Bohr (=   1.6800 Ang.)
Calculating surface                               ...        done! (  0.0s)
GEPOL surface points                              ...         1050
GEPOL Volume                                      ...    1077.6238
GEPOL Surface-area                                ...     613.8797
Calculating surface distance matrix               ...        done! (  0.0s)
Performing Cholesky decomposition & store         ...        done! ( 35.5s)
Overall time for CPCM initialization              ...                35.5s
--------------
SCF ITERATIONS
--------------
ITER       Energy         Delta-E        Max-DP      RMS-DP      [F,P]     Damp
               ***  Starting incremental Fock matrix formation  ***
  0  -1967.0846080128   0.000000000000 0.00004176  0.00000064  0.0000006 0.7000
                 **** Energy Check signals convergence ****

               *****************************************************
               *                     SUCCESS                       *
               *           SCF CONVERGED AFTER   1 CYCLES          *
               *****************************************************

Old exchange energy                            =    -22.290778158 Eh
New exchange energy                            =    -22.290778188 Eh
Exchange energy change after final integration =     -0.000000030 Eh
Total energy after final integration           =  -1967.084608035 Eh
Final COS-X integration done in                =     2.942 sec

----------------
TOTAL SCF ENERGY
----------------

Total Energy       :        -1967.08460804 Eh          -53527.09345 eV

Components:
Nuclear Repulsion  :          615.43051480 Eh           16746.71569 eV
Electronic Energy  :        -2582.51512284 Eh          -70273.80914 eV
One Electron Energy:        -3934.46205518 Eh         -107062.15546 eV
Two Electron Energy:         1351.94693234 Eh           36788.34631 eV
Max COSX asymmetry :            0.00000125 Eh               0.00003 eV
CPCM Dielectric    :           -0.09584077 Eh              -2.60796 eV

Virial components:
Potential Energy   :        -3930.22660074 Eh         -106946.90288 eV
Kinetic Energy     :         1963.14199271 Eh           53419.80943 eV
Virial Ratio       :            2.00200832


DFT components:
N(Alpha)           :       43.000136641249 electrons
N(Beta)            :       43.000136641249 electrons
N(Total)           :       86.000273282498 electrons
E(X)               :      -88.849808591389 Eh       
E(C)               :       -3.857704470924 Eh       
E(XC)              :      -92.707513062314 Eh       
DFET-embed. en.    :        0.000000000000 Eh       
CPCM Solvation Model Properties:
Surface-charge          :           -1.03131848
Charge-correction       :            0.00419997 Eh               0.11429 eV
Free-energy (cav+disp)  :  This term is not implemented in the current solvation scheme

---------------
SCF CONVERGENCE
---------------

  Last Energy change         ...    7.5011e-09  Tolerance :   1.0000e-08
  Last MAX-Density change    ...    1.2936e-05  Tolerance :   1.0000e-07
  Last RMS-Density change    ...    1.9688e-07  Tolerance :   5.0000e-09
  Last DIIS Error            ...    9.8142e-08  Tolerance :   5.0000e-07

             **** THE GBW FILE WAS UPDATED (orca.gbw) ****
             **** DENSITY orca.scfp WAS UPDATED ****
             **** ENERGY FILE WAS UPDATED (orca.en.tmp) ****
             **** THE GBW FILE WAS UPDATED (orca.gbw) ****
             **** DENSITY orca.scfp WAS UPDATED ****
----------------
ORBITAL ENERGIES
----------------

  NO   OCC          E(Eh)            E(eV) 
   0   2.0000    -323.072307     -8791.2444 
   1   2.0000     -38.868379     -1057.6624 
   2   2.0000     -34.073286      -927.1813 
   3   2.0000     -34.072809      -927.1683 
   4   2.0000     -34.072261      -927.1533 
   5   2.0000     -14.394976      -391.7072 
   6   2.0000     -10.304968      -280.4124 
   7   2.0000     -10.222860      -278.1782 
   8   2.0000     -10.207409      -277.7577 
   9   2.0000     -10.207316      -277.7552 
  10   2.0000     -10.201900      -277.6078 
  11   2.0000     -10.201388      -277.5939 
  12   2.0000     -10.200818      -277.5784 
  13   2.0000      -4.358671      -118.6055 
  14   2.0000      -2.857447       -77.7551 
  15   2.0000      -2.853332       -77.6431 
  16   2.0000      -2.846141       -77.4474 
  17   2.0000      -0.983556       -26.7639 
  18   2.0000      -0.891832       -24.2680 
  19   2.0000      -0.802368       -21.8335 
  20   2.0000      -0.779542       -21.2124 
  21   2.0000      -0.713121       -19.4050 
  22   2.0000      -0.643063       -17.4986 
  23   2.0000      -0.628197       -17.0941 
  24   2.0000      -0.585530       -15.9331 
  25   2.0000      -0.559026       -15.2119 
  26   2.0000      -0.523248       -14.2383 
  27   2.0000      -0.491337       -13.3700 
  28   2.0000      -0.483043       -13.1443 
  29   2.0000      -0.463673       -12.6172 
  30   2.0000      -0.451735       -12.2923 
  31   2.0000      -0.445851       -12.1322 
  32   2.0000      -0.398953       -10.8561 
  33   2.0000      -0.394589       -10.7373 
  34   2.0000      -0.379575       -10.3288 
  35   2.0000      -0.373911       -10.1746 
  36   2.0000      -0.350962        -9.5502 
  37   2.0000      -0.341928        -9.3043 
  38   2.0000      -0.339240        -9.2312 
  39   2.0000      -0.329797        -8.9742 
  40   2.0000      -0.291210        -7.9242 
  41   2.0000      -0.288864        -7.8604 
  42   2.0000      -0.268199        -7.2981 
  43   0.0000      -0.113538        -3.0895 
  44   0.0000      -0.049410        -1.3445 
  45   0.0000      -0.043752        -1.1906 
  46   0.0000      -0.034653        -0.9429 
  47   0.0000       0.011332         0.3084 
  48   0.0000       0.022248         0.6054 
  49   0.0000       0.042075         1.1449 
  50   0.0000       0.051212         1.3936 
  51   0.0000       0.072046         1.9605 
  52   0.0000       0.074693         2.0325 
  53   0.0000       0.089346         2.4312 
  54   0.0000       0.094869         2.5815 
  55   0.0000       0.104460         2.8425 
  56   0.0000       0.109748         2.9864 
  57   0.0000       0.112955         3.0737 
  58   0.0000       0.117219         3.1897 
  59   0.0000       0.136797         3.7224 
  60   0.0000       0.160172         4.3585 
  61   0.0000       0.167636         4.5616 
  62   0.0000       0.171395         4.6639 
  63   0.0000       0.179481         4.8839 
  64   0.0000       0.187105         5.0914 
  65   0.0000       0.193146         5.2558 
  66   0.0000       0.207286         5.6405 
  67   0.0000       0.210214         5.7202 
  68   0.0000       0.216152         5.8818 
  69   0.0000       0.227244         6.1836 
  70   0.0000       0.238130         6.4799 
  71   0.0000       0.239858         6.5269 
  72   0.0000       0.249613         6.7923 
  73   0.0000       0.256569         6.9816 
  74   0.0000       0.262681         7.1479 
  75   0.0000       0.280420         7.6306 
  76   0.0000       0.288034         7.8378 
  77   0.0000       0.302650         8.2355 
  78   0.0000       0.313246         8.5238 
  79   0.0000       0.320293         8.7156 
  80   0.0000       0.333033         9.0623 
  81   0.0000       0.338460         9.2100 
  82   0.0000       0.346416         9.4265 
  83   0.0000       0.355807         9.6820 
  84   0.0000       0.366899         9.9838 
  85   0.0000       0.372718        10.1422 
  86   0.0000       0.384345        10.4585 
  87   0.0000       0.395146        10.7525 
  88   0.0000       0.399913        10.8822 
  89   0.0000       0.411596        11.2001 
  90   0.0000       0.414148        11.2695 
  91   0.0000       0.428860        11.6699 
  92   0.0000       0.439388        11.9564 
  93   0.0000       0.450240        12.2516 
  94   0.0000       0.453367        12.3367 
  95   0.0000       0.465151        12.6574 
  96   0.0000       0.471886        12.8407 
  97   0.0000       0.480679        13.0799 
  98   0.0000       0.486972        13.2512 
  99   0.0000       0.495662        13.4876 
 100   0.0000       0.504711        13.7339 
 101   0.0000       0.509745        13.8709 
 102   0.0000       0.527663        14.3584 
 103   0.0000       0.553022        15.0485 
 104   0.0000       0.573469        15.6049 
 105   0.0000       0.592064        16.1109 
 106   0.0000       0.606628        16.5072 
 107   0.0000       0.632174        17.2023 
 108   0.0000       0.636310        17.3149 
 109   0.0000       0.652760        17.7625 
 110   0.0000       0.661297        17.9948 
 111   0.0000       0.678422        18.4608 
 112   0.0000       0.693415        18.8688 
 113   0.0000       0.706771        19.2322 
 114   0.0000       0.724981        19.7277 
 115   0.0000       0.740717        20.1559 
 116   0.0000       0.766582        20.8597 
 117   0.0000       0.786238        21.3946 
 118   0.0000       0.802695        21.8425 
 119   0.0000       0.805212        21.9109 
 120   0.0000       0.841879        22.9087 
 121   0.0000       0.856933        23.3183 
 122   0.0000       0.861713        23.4484 
 123   0.0000       0.880762        23.9668 
 124   0.0000       0.896241        24.3880 
 125   0.0000       0.902707        24.5639 
 126   0.0000       0.912894        24.8411 
 127   0.0000       0.946843        25.7649 
 128   0.0000       0.975287        26.5389 
 129   0.0000       0.984000        26.7760 
 130   0.0000       0.997293        27.1377 
 131   0.0000       1.010955        27.5095 
 132   0.0000       1.029313        28.0090 
 133   0.0000       1.040197        28.3052 
 134   0.0000       1.069024        29.0896 
 135   0.0000       1.083887        29.4941 
 136   0.0000       1.112983        30.2858 
 137   0.0000       1.143929        31.1279 
 138   0.0000       1.160514        31.5792 
 139   0.0000       1.167879        31.7796 
 140   0.0000       1.177764        32.0486 
 141   0.0000       1.190214        32.3874 
 142   0.0000       1.202025        32.7088 
 143   0.0000       1.213980        33.0341 
 144   0.0000       1.222458        33.2648 
 145   0.0000       1.245462        33.8907 
 146   0.0000       1.257187        34.2098 
 147   0.0000       1.276497        34.7353 
 148   0.0000       1.297982        35.3199 
 149   0.0000       1.331086        36.2207 
 150   0.0000       1.349577        36.7239 
 151   0.0000       1.356954        36.9246 
 152   0.0000       1.401346        38.1326 
 153   0.0000       1.417080        38.5607 
 154   0.0000       1.439899        39.1816 
 155   0.0000       1.444950        39.3191 
 156   0.0000       1.451758        39.5044 
 157   0.0000       1.461538        39.7705 
 158   0.0000       1.468504        39.9600 
 159   0.0000       1.495394        40.6917 
 160   0.0000       1.511223        41.1225 
 161   0.0000       1.524859        41.4935 
 162   0.0000       1.544718        42.0339 
 163   0.0000       1.574052        42.8321 
 164   0.0000       1.589230        43.2452 
 165   0.0000       1.594207        43.3806 
 166   0.0000       1.618715        44.0475 
 167   0.0000       1.638084        44.5745 
 168   0.0000       1.650355        44.9084 
 169   0.0000       1.654572        45.0232 
 170   0.0000       1.678188        45.6658 
 171   0.0000       1.683911        45.8215 
 172   0.0000       1.694625        46.1131 
 173   0.0000       1.722417        46.8694 
 174   0.0000       1.739411        47.3318 
 175   0.0000       1.756278        47.7908 
 176   0.0000       1.777306        48.3629 
 177   0.0000       1.822369        49.5892 
 178   0.0000       1.842940        50.1490 
 179   0.0000       1.861302        50.6486 
 180   0.0000       1.884018        51.2667 
 181   0.0000       1.911625        52.0180 
 182   0.0000       1.934998        52.6540 
 183   0.0000       1.941897        52.8417 
 184   0.0000       1.961938        53.3870 
 185   0.0000       1.970091        53.6089 
 186   0.0000       2.001370        54.4600 
 187   0.0000       2.033959        55.3468 
 188   0.0000       2.054488        55.9055 
 189   0.0000       2.067821        56.2683 
 190   0.0000       2.102198        57.2037 
 191   0.0000       2.119139        57.6647 
 192   0.0000       2.135923        58.1214 
 193   0.0000       2.149678        58.4957 
 194   0.0000       2.177194        59.2445 
 195   0.0000       2.190175        59.5977 
 196   0.0000       2.217242        60.3342 
 197   0.0000       2.233900        60.7875 
 198   0.0000       2.253288        61.3151 
 199   0.0000       2.287436        62.2443 
 200   0.0000       2.307487        62.7899 
 201   0.0000       2.330962        63.4287 
 202   0.0000       2.378065        64.7104 
 203   0.0000       2.397388        65.2363 
 204   0.0000       2.405547        65.4583 
 205   0.0000       2.448231        66.6198 
 206   0.0000       2.455470        66.8167 
 207   0.0000       2.479656        67.4749 
 208   0.0000       2.494862        67.8887 
 209   0.0000       2.512955        68.3810 
 210   0.0000       2.535318        68.9895 
 211   0.0000       2.556168        69.5569 
 212   0.0000       2.559450        69.6462 
 213   0.0000       2.589789        70.4717 
 214   0.0000       2.600194        70.7549 
 215   0.0000       2.606380        70.9232 
 216   0.0000       2.628143        71.5154 
 217   0.0000       2.636832        71.7518 
 218   0.0000       2.647786        72.0499 
 219   0.0000       2.663219        72.4699 
 220   0.0000       2.674351        72.7728 
 221   0.0000       2.688925        73.1694 
 222   0.0000       2.700914        73.4956 
 223   0.0000       2.725711        74.1704 
 224   0.0000       2.741515        74.6004 
 225   0.0000       2.749246        74.8108 
 226   0.0000       2.757075        75.0238 
 227   0.0000       2.775261        75.5187 
 228   0.0000       2.796272        76.0904 
 229   0.0000       2.804754        76.3212 
 230   0.0000       2.817920        76.6795 
 231   0.0000       2.831716        77.0549 
 232   0.0000       2.854428        77.6729 
 233   0.0000       2.875926        78.2579 
 234   0.0000       2.893470        78.7353 
 235   0.0000       2.918545        79.4177 
 236   0.0000       2.939451        79.9865 
 237   0.0000       2.944788        80.1317 
 238   0.0000       3.002484        81.7017 
 239   0.0000       3.017013        82.0971 
 240   0.0000       3.033683        82.5507 
 241   0.0000       3.039382        82.7058 
 242   0.0000       3.082042        83.8666 
 243   0.0000       3.098574        84.3165 
 244   0.0000       3.111318        84.6633 
 245   0.0000       3.115785        84.7848 
 246   0.0000       3.121981        84.9534 
 247   0.0000       3.136060        85.3365 
 248   0.0000       3.153188        85.8026 
 249   0.0000       3.169673        86.2512 
 250   0.0000       3.188203        86.7554 
 251   0.0000       3.194474        86.9260 
 252   0.0000       3.200783        87.0977 
 253   0.0000       3.250873        88.4607 
 254   0.0000       3.256956        88.6263 
 255   0.0000       3.271256        89.0154 
 256   0.0000       3.300880        89.8215 
 257   0.0000       3.316587        90.2489 
 258   0.0000       3.326393        90.5158 
 259   0.0000       3.336151        90.7813 
 260   0.0000       3.348236        91.1101 
 261   0.0000       3.358100        91.3786 
 262   0.0000       3.373304        91.7923 
 263   0.0000       3.383599        92.0724 
 264   0.0000       3.389753        92.2399 
 265   0.0000       3.438649        93.5704 
 266   0.0000       3.441456        93.6468 
 267   0.0000       3.456720        94.0621 
 268   0.0000       3.478604        94.6576 
 269   0.0000       3.510779        95.5332 
 270   0.0000       3.526197        95.9527 
 271   0.0000       3.528993        96.0288 
 272   0.0000       3.562504        96.9407 
 273   0.0000       3.599227        97.9399 
 274   0.0000       3.641351        99.0862 
 275   0.0000       3.650218        99.3275 
 276   0.0000       3.656681        99.5033 
 277   0.0000       3.692002       100.4645 
 278   0.0000       3.709139       100.9308 
 279   0.0000       3.715722       101.1099 
 280   0.0000       3.737792       101.7105 
 281   0.0000       3.756409       102.2171 
 282   0.0000       3.771154       102.6183 
 283   0.0000       3.790728       103.1509 
 284   0.0000       3.847248       104.6889 
 285   0.0000       3.873083       105.3919 
 286   0.0000       3.885448       105.7284 
 287   0.0000       3.915242       106.5392 
 288   0.0000       3.941584       107.2559 
 289   0.0000       3.995944       108.7352 
 290   0.0000       4.024772       109.5196 
 291   0.0000       4.072383       110.8152 
 292   0.0000       4.110209       111.8445 
 293   0.0000       4.115020       111.9754 
 294   0.0000       4.144443       112.7760 
 295   0.0000       4.168875       113.4409 
 296   0.0000       4.184629       113.8695 
 297   0.0000       4.196214       114.1848 
 298   0.0000       4.212761       114.6350 
 299   0.0000       4.227410       115.0337 
 300   0.0000       4.257958       115.8649 
 301   0.0000       4.288050       116.6838 
 302   0.0000       4.317557       117.4867 
 303   0.0000       4.328720       117.7905 
 304   0.0000       4.383039       119.2686 
 305   0.0000       4.436746       120.7300 
 306   0.0000       4.493171       122.2654 
 307   0.0000       4.554476       123.9336 
 308   0.0000       4.627522       125.9213 
 309   0.0000       4.632175       126.0479 
 310   0.0000       4.657513       126.7374 
 311   0.0000       4.682945       127.4294 
 312   0.0000       4.692616       127.6926 
[...]
      9      -0.023914  -0.000188  -0.194891  -0.002030   0.041030   0.010875
     10      -0.118392  -0.005873  -0.234435  -0.003790   0.001562   0.000980
     11       0.157133   0.007989   0.058453   0.002677   0.064799   0.016281
     12      -0.097179  -0.010528   0.200880   0.001782   0.004459  -0.000730
     13       0.013168  -0.001458   0.163377   0.001601   0.019055  -0.000844
     14      -0.190686  -0.015845   0.071194   0.000685  -0.024343   0.000189
     15       0.074398   0.007730  -0.092863  -0.000371  -0.010060   0.011755
     16      -0.107640  -0.003027  -0.098515   0.000230  -0.009628   0.010993
     17       0.313952   0.019072   0.007047  -0.000891  -0.001150   0.001810
     18      -0.164156  -0.000457  -0.123945  -0.000350  -0.066434   0.229536
     19      -0.125893   0.008091  -0.234418  -0.002046  -0.006114   0.020325
     20      -0.078758  -0.014721   0.183915  -0.000013  -0.105268   0.364826
     21      -0.087209  -0.002528  -0.113540  -0.000259   0.120696  -0.138265
     22       0.161968   0.016161  -0.093233   0.000133   0.114619  -0.131487
     23      -0.430257  -0.032662  -0.042458  -0.000297   0.015232  -0.017543
     24      -0.227685  -0.021117   0.265595   0.001247  -0.024567   0.159960
     25      -0.191626  -0.011914   0.111980   0.003553  -0.083504   0.532594
     26      -0.071429  -0.016234   0.269630   0.003713   0.100955  -0.636723
     27       0.208980   0.028254   0.198560   0.003328  -0.479650  -0.123361
     28       0.223245   0.049361   0.353556   0.001612  -0.026039  -0.007441
     29       0.004873  -0.007917  -0.220856  -0.000159  -0.746433  -0.191024
     30       0.178063   0.019980  -0.199293   0.000656  -0.067848   0.001915
     31       0.183387   0.016541  -0.064549   0.000807  -0.239081   0.004977
     32      -0.003707   0.004168  -0.234693  -0.000221   0.285524  -0.005117
     33       0.013574  -0.014636  -0.011609   0.011681   0.000195   0.000036
     34      -0.001736   0.000462  -0.023759   0.000116  -0.000987   0.003292
     35       0.041478  -0.007722  -0.000454   0.006922   0.001564  -0.003555
     36       0.004440  -0.002324  -0.003524  -0.003767   0.000019   0.000023
     37      -0.009133   0.042528   0.007577   0.004097   0.000239   0.000101
     38      -0.023033   0.074419   0.002709   0.007629  -0.000171   0.000047
     39      -0.147953   0.017166  -0.011915   0.008637  -0.001366   0.001170
     40      -0.132827   0.012017   0.016380  -0.048029   0.009686  -0.037285
     41      -0.077370   0.002246   0.036284  -0.027126  -0.012270   0.043542
     42       0.022395  -0.005919  -0.024497  -0.383222  -0.000758   0.000791
     43       0.008230  -0.011677   0.009024  -0.227378   0.000023  -0.000366
     44       0.041671  -0.035121   0.039515  -0.891369  -0.000328   0.000659
     45      -0.050942   0.229012   0.032565  -0.027382   0.000314   0.000366
     46      -0.002413   0.016981   0.000952   0.010620   0.000534   0.001079
     47       0.180297  -0.663858  -0.043240   0.021398  -0.001417  -0.000235
     48       0.015466  -0.063832  -0.004452  -0.022906  -0.000961  -0.000039
     49       0.140896  -0.630863  -0.084198   0.033790  -0.002802  -0.000537
     50       0.056578  -0.295160  -0.047704   0.014817  -0.001528  -0.001032
     51      -0.000286   0.000263  -0.000701   0.005085  -0.000020  -0.000003
     52      -0.000103   0.000202  -0.000069   0.002800  -0.000005  -0.000004
     53      -0.000495   0.000601  -0.000527   0.011675   0.000011  -0.000005
                 48         49         50         51         52         53    
      0       0.014734  -0.031350  -0.000457  -0.024943   0.000042   0.000022
      1       0.003338  -0.003815  -0.000280  -0.001293   0.000051   0.000027
      2       0.019924  -0.048011  -0.000514  -0.041228  -0.000054  -0.000023
      3      -0.006642   0.005987   0.001181   0.004437  -0.000087  -0.000085
      4      -0.021654   0.016028   0.004161   0.011259   0.000004  -0.000033
      5       0.025707  -0.017148  -0.005299  -0.011624  -0.000132  -0.000004
      6      -0.001153   0.000574  -0.000993   0.000639   0.000223  -0.000089
      7      -0.001045  -0.000500  -0.000912   0.000602   0.000503   0.000018
      8      -0.000259   0.001875   0.000095   0.000129   0.000382  -0.000202
      9      -0.013644  -0.012213  -0.001220   0.008468  -0.000063  -0.000022
     10      -0.001002  -0.002110  -0.000664   0.001704  -0.000145  -0.000141
     11      -0.020798  -0.016659  -0.000865   0.011194   0.000186   0.000186
     12       0.007747   0.011359   0.001119  -0.007351   0.000025  -0.000014
     13       0.021710   0.037390   0.004300  -0.028700   0.000004   0.000032
     14      -0.023194  -0.043378  -0.005267   0.035694  -0.000037  -0.000047
     15      -0.045320   0.002442   0.003832  -0.040750  -0.000000   0.000003
     16      -0.043227   0.000317   0.003408  -0.038828  -0.000014  -0.000002
     17      -0.005541   0.003740   0.000868  -0.005013   0.000032   0.000037
     18      -0.155954   0.349046   0.005546   0.283447   0.000242  -0.000003
     19      -0.016787   0.033782   0.001131   0.025258   0.000028  -0.000110
     20      -0.242520   0.549562   0.007913   0.449990   0.000220  -0.000145
     21       0.527935  -0.020063  -0.042267   0.449773   0.000031  -0.000050
     22       0.502625  -0.016739  -0.039888   0.428048   0.000063  -0.000106
     23       0.066214  -0.006688  -0.005499   0.056529  -0.000055  -0.000088
     24       0.073657  -0.051978  -0.014511  -0.035393  -0.000254   0.000014
     25       0.244083  -0.167706  -0.049566  -0.113056  -0.000173   0.000092
     26      -0.291460   0.197698   0.061826   0.132994   0.000234  -0.000131
     27       0.151012   0.123286   0.008019  -0.081541   0.000404   0.000138
     28       0.008592   0.008735   0.000494  -0.006171   0.002169   0.001616
     29       0.234291   0.188745   0.011947  -0.124245   0.000653  -0.000056
     30      -0.071298  -0.121781  -0.013891   0.092034   0.000027  -0.000030
     31      -0.241455  -0.420148  -0.048439   0.323663   0.000139  -0.000048
     32       0.283469   0.497135   0.057870  -0.386018  -0.000041   0.000127
     33      -0.000122  -0.000161   0.001538   0.000307   0.001306  -0.000288
     34       0.002542  -0.004884   0.057769   0.003493  -0.000634   0.000342
     35      -0.002999   0.005229  -0.063823  -0.003767   0.000101  -0.000881
     36       0.000007   0.000040  -0.000861  -0.000099   0.016809   0.031752
     37      -0.000075   0.000022  -0.001269  -0.000055  -0.031063   0.069094
     38       0.000106  -0.000116   0.002099   0.000109  -0.041215  -0.038747
     39       0.001173   0.000135  -0.001545  -0.000888   0.000267   0.002244
     40      -0.028578   0.056623  -0.662135  -0.040329   0.002499  -0.009696
     41       0.033289  -0.062896   0.733210   0.043843   0.004834   0.012616
     42       0.001238  -0.000443   0.002274  -0.000741  -0.003683   0.000877
     43      -0.000143   0.000543  -0.005899  -0.000302   0.004934   0.001176
     44       0.000518  -0.000829   0.008373   0.000545   0.005523  -0.000204
     45       0.000131  -0.000199   0.000232  -0.000146   0.098985  -0.084035
     46       0.000493  -0.001213   0.009525   0.000246   0.698656  -0.699497
     47       0.000455   0.000431  -0.003409  -0.000478   0.005838  -0.013808
     48       0.000432  -0.000333   0.008042   0.000486  -0.346435  -0.354929
     49       0.000918   0.000006   0.006654   0.000338  -0.272642  -0.256914
     50       0.000106   0.000654  -0.004787  -0.000284   0.551945   0.551294
     51       0.000010   0.000002   0.000008  -0.000006  -0.000006   0.000003
     52       0.000001   0.000005  -0.000031  -0.000002  -0.000020   0.000007
     53      -0.000008   0.000006  -0.000083  -0.000004  -0.000034  -0.000001


-----------
IR SPECTRUM
-----------

 Mode   freq       eps      Int      T**2         TX        TY        TZ
       cm**-1   L/(mol*cm) km/mol    a.u.
----------------------------------------------------------------------------
  7:     47.82   0.000439    2.22  0.002867  (-0.029811  0.039992 -0.019453)
  8:     76.36   0.000379    1.91  0.001547  ( 0.001856 -0.039239  0.002031)
  9:    168.56   0.001668    8.43  0.003088  (-0.030108 -0.045347  0.011168)
 10:    234.47   0.003307   16.71  0.004401  ( 0.052836  0.005565 -0.039725)
 11:    259.52   0.000323    1.63  0.000389  (-0.003696 -0.002612  0.019190)
 12:    362.73   0.009771   49.38  0.008406  ( 0.070794  0.007632 -0.057757)
 13:    409.67   0.000607    3.07  0.000462  ( 0.019570  0.008505 -0.002624)
 14:    421.16   0.016106   81.39  0.011934  (-0.097334 -0.034097  0.036025)
 15:    486.42   0.007402   37.41  0.004749  ( 0.067222 -0.003116 -0.014846)
 16:    526.19   0.010118   51.13  0.006000  ( 0.054643  0.024545 -0.049114)
 17:    582.16   0.005917   29.90  0.003172  (-0.027600  0.042585  0.024427)
 18:    631.60   0.018228   92.12  0.009006  (-0.059609 -0.054404 -0.049931)
 19:    634.39   0.015240   77.02  0.007497  ( 0.057424  0.041174  0.050039)
 20:    694.19   0.045271  228.78  0.020351  ( 0.129529 -0.009180  0.059068)
 21:    709.62   0.027739  140.18  0.012198  (-0.085187  0.068431  0.016085)
 22:    791.79   0.001844    9.32  0.000727  ( 0.004254 -0.014547 -0.022291)
 23:    809.21   0.004138   20.91  0.001596  (-0.038170  0.000376  0.011773)
 24:    855.76   0.000034    0.17  0.000013  (-0.001924 -0.002445 -0.001683)
 25:    945.72   0.000359    1.81  0.000118  (-0.007795  0.004410  0.006188)
 26:    988.77   0.000048    0.24  0.000015  ( 0.001977  0.000751  0.003277)
 27:   1016.32   0.000028    0.14  0.000009  (-0.001837 -0.001789 -0.001396)
 28:   1021.92   0.000354    1.79  0.000108  ( 0.010061  0.002372  0.001093)
 29:   1049.19   0.001772    8.95  0.000527  ( 0.006940  0.019833  0.009240)
 30:   1094.17   0.006920   34.97  0.001974  (-0.011436  0.039300  0.017269)
 31:   1105.03   0.006977   35.26  0.001970  ( 0.009514 -0.014127 -0.040989)
 32:   1141.39   0.005263   26.60  0.001439  (-0.034897  0.013707  0.005759)
 33:   1180.78   0.002870   14.51  0.000759  (-0.014834  0.009136  0.021332)
 34:   1183.02   0.000252    1.27  0.000066  (-0.007198  0.001950  0.003277)
 35:   1207.32   0.000923    4.66  0.000238  (-0.009124 -0.010794 -0.006223)
 36:   1244.54   0.017405   87.96  0.004364  (-0.033341 -0.047062 -0.032216)
 37:   1337.33   0.002180   11.02  0.000509  (-0.017220 -0.011108 -0.009424)
 38:   1368.10   0.001181    5.97  0.000269  (-0.005352 -0.015063  0.003713)
 39:   1433.54   0.011777   59.51  0.002564  ( 0.030585  0.038285  0.012745)
 40:   1492.71   0.004162   21.03  0.000870  (-0.013836  0.002392 -0.025939)
 41:   1533.89   0.000296    1.50  0.000060  ( 0.004084  0.004006 -0.005246)
 42:   1623.25   0.000453    2.29  0.000087  ( 0.005137  0.007397  0.002458)
 43:   1623.86   0.018332   92.64  0.003523  (-0.002299 -0.030094 -0.051108)
 44:   1639.49   0.003160   15.97  0.000601  (-0.016631 -0.016440 -0.007391)
 45:   1778.48   0.007796   39.40  0.001368  ( 0.004642  0.025890  0.026001)
 46:   3170.66   0.001125    5.69  0.000111  ( 0.007313  0.005380  0.005323)
 47:   3174.83   0.000314    1.58  0.000031  (-0.001020 -0.003855  0.003862)
 48:   3183.74   0.000516    2.61  0.000051  (-0.003844 -0.005825 -0.001370)
 49:   3193.33   0.002726   13.77  0.000266  (-0.003691  0.005738 -0.014826)
 50:   3197.10   0.000345    1.74  0.000034  ( 0.004436 -0.003610 -0.000984)
 51:   3201.72   0.001786    9.03  0.000174  (-0.010429 -0.008029 -0.000938)
 52:   3527.96   0.025012  126.40  0.002212  (-0.015737  0.030686  0.031987)
 53:   3627.36   0.022389  113.14  0.001926  (-0.015635 -0.037468  0.016669)

* The epsilon (eps) is given for a Dirac delta lineshape.
** The dipole moment derivative (T) already includes vibrational overlap.

The first frequency considered to be a vibration is 7
The total number of vibrations considered is 47


--------------------------
THERMOCHEMISTRY AT 298.15K
--------------------------

Temperature         ... 298.15 K
Pressure            ... 1.00 atm
Total Mass          ... 170.71 AMU

Throughout the following assumptions are being made:
  (1) The electronic state is orbitally nondegenerate
  (2) There are no thermally accessible electronically excited states
  (3) Hindered rotations indicated by low frequency modes are not
      treated as such but are treated as vibrations and this may
      cause some error
  (4) All equations used are the standard statistical mechanics
      equations for an ideal gas
  (5) All vibrations are strictly harmonic

freq.      47.82  E(vib)   ...       0.53 
freq.      76.36  E(vib)   ...       0.49 
freq.     168.56  E(vib)   ...       0.38 
freq.     234.47  E(vib)   ...       0.32 
freq.     259.52  E(vib)   ...       0.30 
freq.     362.73  E(vib)   ...       0.22 
freq.     409.67  E(vib)   ...       0.19 
freq.     421.16  E(vib)   ...       0.18 
freq.     486.42  E(vib)   ...       0.15 
freq.     526.19  E(vib)   ...       0.13 
freq.     582.16  E(vib)   ...       0.11 
freq.     631.60  E(vib)   ...       0.09 
freq.     634.39  E(vib)   ...       0.09 
freq.     694.19  E(vib)   ...       0.07 
freq.     709.62  E(vib)   ...       0.07 
freq.     791.79  E(vib)   ...       0.05 
freq.     809.21  E(vib)   ...       0.05 
freq.     855.76  E(vib)   ...       0.04 
freq.     945.72  E(vib)   ...       0.03 
freq.     988.77  E(vib)   ...       0.02 
freq.    1016.32  E(vib)   ...       0.02 
freq.    1021.92  E(vib)   ...       0.02 
freq.    1049.19  E(vib)   ...       0.02 
freq.    1094.17  E(vib)   ...       0.02 
freq.    1105.03  E(vib)   ...       0.02 
freq.    1141.39  E(vib)   ...       0.01 
freq.    1180.78  E(vib)   ...       0.01 
freq.    1183.02  E(vib)   ...       0.01 
freq.    1207.32  E(vib)   ...       0.01 
freq.    1244.54  E(vib)   ...       0.01 
freq.    1337.33  E(vib)   ...       0.01 
freq.    1368.10  E(vib)   ...       0.01 
freq.    1433.54  E(vib)   ...       0.00 
freq.    1492.71  E(vib)   ...       0.00 
freq.    1533.89  E(vib)   ...       0.00 
freq.    1623.25  E(vib)   ...       0.00 
freq.    1623.86  E(vib)   ...       0.00 
freq.    1639.49  E(vib)   ...       0.00 
freq.    1778.48  E(vib)   ...       0.00 
freq.    3170.66  E(vib)   ...       0.00 
freq.    3174.83  E(vib)   ...       0.00 
freq.    3183.74  E(vib)   ...       0.00 
freq.    3193.33  E(vib)   ...       0.00 
freq.    3197.10  E(vib)   ...       0.00 
freq.    3201.72  E(vib)   ...       0.00 
freq.    3527.96  E(vib)   ...       0.00 
freq.    3627.36  E(vib)   ...       0.00 

------------
INNER ENERGY
------------

The inner energy is: U= E(el) + E(ZPE) + E(vib) + E(rot) + E(trans)
    E(el)   - is the total energy from the electronic structure calculation
              = E(kin-el) + E(nuc-el) + E(el-el) + E(nuc-nuc)
    E(ZPE)  - the the zero temperature vibrational energy from the frequency calculation
    E(vib)  - the the finite temperature correction to E(ZPE) due to population
              of excited vibrational states
    E(rot)  - is the rotational thermal energy
    E(trans)- is the translational thermal energy

Summary of contributions to the inner energy U:
Electronic energy                ...  -1967.12202585 Eh
Zero point energy                ...      0.14121713 Eh      88.61 kcal/mol
Thermal vibrational correction   ...      0.00585466 Eh       3.67 kcal/mol
Thermal rotational correction    ...      0.00141627 Eh       0.89 kcal/mol
Thermal translational correction ...      0.00141627 Eh       0.89 kcal/mol
-----------------------------------------------------------------------
Total thermal energy                  -1966.97212152 Eh


Summary of corrections to the electronic energy:
(perhaps to be used in another calculation)
Total thermal correction                  0.00868720 Eh       5.45 kcal/mol
Non-thermal (ZPE) correction              0.14121713 Eh      88.61 kcal/mol
-----------------------------------------------------------------------
Total correction                          0.14990433 Eh      94.07 kcal/mol


--------
ENTHALPY
--------

The enthalpy is H = U + kB*T
                kB is Boltzmann's constant
Total free energy                 ...  -1966.97212152 Eh 
Thermal Enthalpy correction       ...      0.00094421 Eh       0.59 kcal/mol
-----------------------------------------------------------------------
Total Enthalpy                    ...  -1966.97117731 Eh


Note: Only C1 symmetry has been detected, increase convergence thresholds 
      if your molecule has a higher symmetry. Symmetry factor of 1.0 is   
      used for the rotational entropy correction. 
 

Note: Rotational entropy computed according to Herzberg 
Infrared and Raman Spectra, Chapter V,1, Van Nostrand Reinhold, 1945 
Point Group:  C1, Symmetry Number:   1  
Rotational constants in cm-1:     0.103171     0.020544     0.019679 

Vibrational entropy computed according to the QRRHO of S. Grimme
Chem.Eur.J. 2012 18 9955


-------
ENTROPY
-------

The entropy contributions are T*S = T*(S(el)+S(vib)+S(rot)+S(trans))
     S(el)   - electronic entropy
     S(vib)  - vibrational entropy
     S(rot)  - rotational entropy
     S(trans)- translational entropy
The entropies will be listed as multiplied by the temperature to get
units of energy

Electronic entropy                ...      0.00000000 Eh      0.00 kcal/mol
Vibrational entropy               ...      0.00976538 Eh      6.13 kcal/mol
Rotational entropy                ...      0.01427173 Eh      8.96 kcal/mol
Translational entropy             ...      0.01962863 Eh     12.32 kcal/mol
-----------------------------------------------------------------------
Final entropy term                ...      0.04366574 Eh     27.40 kcal/mol

In case the symmetry of your molecule has not been determined correctly
or in case you have a reason to use a different symmetry number we print 
out the resulting rotational entropy values for sn=1,12 :
 --------------------------------------------------------
|  sn= 1 | S(rot)=       0.01427173 Eh      8.96 kcal/mol|
|  sn= 2 | S(rot)=       0.01361728 Eh      8.54 kcal/mol|
|  sn= 3 | S(rot)=       0.01323445 Eh      8.30 kcal/mol|
|  sn= 4 | S(rot)=       0.01296282 Eh      8.13 kcal/mol|
|  sn= 5 | S(rot)=       0.01275213 Eh      8.00 kcal/mol|
|  sn= 6 | S(rot)=       0.01257999 Eh      7.89 kcal/mol|
|  sn= 7 | S(rot)=       0.01243444 Eh      7.80 kcal/mol|
|  sn= 8 | S(rot)=       0.01230836 Eh      7.72 kcal/mol|
|  sn= 9 | S(rot)=       0.01219716 Eh      7.65 kcal/mol|
|  sn=10 | S(rot)=       0.01209768 Eh      7.59 kcal/mol|
|  sn=11 | S(rot)=       0.01200769 Eh      7.53 kcal/mol|
|  sn=12 | S(rot)=       0.01192553 Eh      7.48 kcal/mol|
 --------------------------------------------------------


-------------------
GIBBS FREE ENERGY
-------------------

The Gibbs free energy is G = H - T*S

Total enthalpy                    ...  -1966.97117731 Eh 
Total entropy correction          ...     -0.04366574 Eh    -27.40 kcal/mol
-----------------------------------------------------------------------
Final Gibbs free energy         ...  -1967.01484305 Eh

For completeness - the Gibbs free energy minus the electronic energy
G-E(el)                           ...      0.10718279 Eh     67.26 kcal/mol


Timings for individual modules:

Sum of individual times         ...   120939.007 sec (=2015.650 min)
GTO integral calculation        ...      573.058 sec (=   9.551 min)   0.5 %
SCF iterations                  ...    14232.678 sec (= 237.211 min)  11.8 %
SCF Gradient evaluation         ...     1035.573 sec (=  17.260 min)   0.9 %
Geometry relaxation             ...        2.740 sec (=   0.046 min)   0.0 %
Analytical frequency calculation...     1156.231 sec (=  19.271 min)   1.0 %
NEB Iterations                  ...   103938.726 sec (=1732.312 min)  85.9 %
                             ****ORCA TERMINATED NORMALLY****
TOTAL RUN TIME: 1 days 9 hours 27 minutes 10 seconds 284 msec
