18
Properties=species:S:1:pos:R:3 energy=-1967.169376308299 pbc="F F F"
C       -2.78160000       1.62225000       1.41563000
C       -1.61854000       2.38835000       1.29308000
C       -0.56584000       2.24109000       2.21106000
C       -0.70074000       1.30521000       3.25809000
C       -1.86682000       0.54178000       3.37625000
C       -2.90589000       0.69993000       2.45665000
H       -3.58678000       1.74390000       0.70260000
H       -3.80681000       0.10737000       2.55029000
H       -1.53915000       3.09887000       0.47943000
H        0.08521000       1.15562000       3.98572000
H       -1.96431000      -0.17437000       4.18209000
C        0.66625000       3.09585000       2.02163000
N        1.69508000       2.84655000       3.02619000
H        1.35682000       3.19224000       3.95390000
H        2.53775000       3.40814000       2.76861000
H        0.37930000       4.17082000       2.04680000
H        0.97211800       2.96935600       0.95548500
Cu       3.28391800       1.51493200       3.21122400
18
Properties=species:S:1:pos:R:3 energy=-1967.176217554042 pbc="F F F"
C       -2.77629100       1.61630900       1.41837800
C       -1.62193400       2.38278600       1.29611100
C       -0.57284800       2.24541700       2.20922900
C       -0.70226800       1.32171700       3.24939200
C       -1.85835200       0.55206800       3.37070100
C       -2.89696400       0.69764800       2.45749200
H       -3.58029400       1.73374800       0.70316500
H       -3.79399400       0.09928000       2.55349300
H       -1.54144800       3.09344900       0.48165600
H        0.08986500       1.18414600       3.97255600
H       -1.94691400      -0.16167300       4.17976600
C        0.65541000       3.10761900       2.02508300
N        1.69779000       2.86293500       3.02166600
H        1.37674800       3.17651600       3.93071300
H        2.52028300       3.42110200       2.79120700
H        0.36625200       4.16674400       2.04935400
H        1.01177100       2.95945500       1.00211900
Cu       3.21315100       1.46862300       3.18264900
18
Properties=species:S:1:pos:R:3 energy=-1967.18128398893 pbc="F F F"
C       -2.76660500       1.60535000       1.41756400
C       -1.62277000       2.37710900       1.29649400
C       -0.57721500       2.25329400       2.20877500
C       -0.70048400       1.34069300       3.24512300
C       -1.84721400       0.56250600       3.37010700
C       -2.88415500       0.69119600       2.45917400
H       -3.56800300       1.71510700       0.69782200
H       -3.77616800       0.08559400       2.55711500
H       -1.54018700       3.08720400       0.48072000
H        0.09756700       1.22008000       3.96546500
H       -1.92669500      -0.14642100       4.18481300
C        0.64390300       3.12533100       2.02631100
N        1.70336300       2.88601900       3.01534000
H        1.39673900       3.15978400       3.93234800
H        2.51430200       3.44725800       2.81206400
H        0.34959700       4.17335000       2.05713800
H        1.06247600       2.95289400       1.04375300
Cu       3.08151500       1.39154000       3.12460400
18
Properties=species:S:1:pos:R:3 energy=-1967.185352811669 pbc="F F F"
C       -2.75335000       1.59295000       1.41475500
C       -1.61969800       2.37567700       1.29423600
C       -0.57575500       2.26662500       2.20990500
C       -0.69296500       1.36018000       3.24846200
C       -1.83166100       0.57096100       3.37517700
C       -2.86599800       0.68207500       2.46129100
H       -3.55170300       1.69065500       0.68972800
H       -3.75144600       0.06707900       2.55908000
H       -1.53652800       3.08331200       0.47608100
H        0.10799900       1.25599200       3.96861600
H       -1.90349200      -0.13315500       4.19502000
C        0.63707000       3.14668700       2.02495300
N        1.70656700       2.90406300       3.01217000
H        1.41190400       3.14291400       3.94532700
H        2.51903300       3.46985200       2.82974100
H        0.33980600       4.19139600       2.06491700
H        1.09978000       2.95760700       1.06581000
Cu       2.90040200       1.30301900       3.05945900
18
Properties=species:S:1:pos:R:3 energy=-1967.188433112099 pbc="F F F"
C       -2.74325400       1.58898300       1.41490800
C       -1.60782600       2.37023700       1.29092200
C       -0.56084900       2.26072200       2.20780400
C       -0.67984400       1.35365900       3.25128400
C       -1.82174900       0.56619900       3.37921100
C       -2.85660400       0.67884000       2.46458400
H       -3.54294300       1.68851100       0.69160300
H       -3.74415200       0.06753300       2.56444700
H       -1.52333500       3.07974500       0.47494500
H        0.11876700       1.25327300       3.97428000
H       -1.89473200      -0.13413600       4.20207600
C        0.64159500       3.15177100       2.01899300
N        1.71808200       2.92834400       3.01372000
H        1.42570200       3.14118900       3.96128400
H        2.52037400       3.52055900       2.83810400
H        0.33208600       4.19557300       2.06281500
H        1.12682300       2.95936000       1.06544100
Cu       2.73182500       1.25752500       3.01830600
18
Properties=species:S:1:pos:R:3 energy=-1967.190107547706 pbc="F F F"
C       -2.73181300       1.58696200       1.41494300
C       -1.59486900       2.37025200       1.29294500
C       -0.54654800       2.25853700       2.21233400
C       -0.66888200       1.34812200       3.25910800
C       -1.81240900       0.55971200       3.38241300
C       -2.84560900       0.67504600       2.46396300
H       -3.53142200       1.68690300       0.69184200
H       -3.73415600       0.06490200       2.56156100
H       -1.50958400       3.08029800       0.47823800
H        0.12120600       1.24935900       3.99206700
H       -1.88872100      -0.14022000       4.20501400
C        0.64990800       3.15430300       2.01645300
N        1.73314500       2.94320100       3.01289800
H        1.43926900       3.14646000       3.96683900
H        2.52187800       3.55806000       2.82824900
H        0.33239900       4.19874700       2.06295100
H        1.12052200       2.97031500       1.05003200
Cu       2.58565100       1.21693000       3.00287900
18
Properties=species:S:1:pos:R:3 energy=-1967.190922093048 pbc="F F F"
C       -2.71922900       1.58046000       1.41137100
C       -1.58803000       2.37607700       1.29790100
C       -0.54411900       2.27272000       2.22447400
C       -0.66767500       1.36203600       3.27337600
C       -1.80371200       0.56081600       3.38636800
C       -2.82992500       0.66579200       2.45780800
H       -3.51467700       1.67075900       0.68261700
H       -3.71193100       0.04480000       2.54665800
H       -1.50427300       3.08385700       0.48141500
H        0.11069200       1.27143000       4.02040300
H       -1.88035000      -0.14076300       4.20732100
C        0.65366900       3.16568900       2.02376500
N        1.74603500       2.93825700       3.00580500
H        1.45796800       3.15103900       3.96048600
H        2.53032200       3.55305400       2.80046800
H        0.34081900       4.21296600       2.07944500
H        1.08626400       2.99658600       1.03625500
Cu       2.47811900       1.16231600       2.99879300
18
Properties=species:S:1:pos:R:3 energy=-1967.191545429702 pbc="F F F"
C       -2.69968500       1.56156700       1.39672400
C       -1.57517700       2.36973900       1.29723600
C       -0.54699300       2.28627500       2.24230000
C       -0.68294000       1.38675500       3.30025500
C       -1.81105900       0.57282900       3.39942000
C       -2.81868400       0.65506600       2.44829200
H       -3.48257300       1.63452200       0.65272100
H       -3.69397400       0.02300900       2.52532900
H       -1.48644000       3.06838700       0.47348500
H        0.06917600       1.31899100       4.07675200
H       -1.89842600      -0.11915100       4.22727500
C        0.65015100       3.18485000       2.04925300
N        1.76788800       2.91799500       2.98631800
H        1.50104400       3.12566500       3.94765500
H        2.53741000       3.54221500       2.75886500
H        0.34112100       4.23148200       2.14378600
H        1.02755800       3.06100900       1.03299200
Cu       2.44156700       1.10668100       2.93607000
18
Properties=species:S:1:pos:R:3 energy=-1967.19192064966 pbc="F F F"
C       -2.68337200       1.54348300       1.38478300
C       -1.56368600       2.35786000       1.28761600
C       -0.55048800       2.29937600       2.24860400
C       -0.69104900       1.41325000       3.31472300
C       -1.81193800       0.58975600       3.41085400
C       -2.80854800       0.65076800       2.44695200
H       -3.45714900       1.59922400       0.62978400
H       -3.67801100       0.01022200       2.52050500
H       -1.47075800       3.04441100       0.45397400
H        0.05234800       1.35918600       4.10084000
H       -1.90242200      -0.09394600       4.24523600
C        0.64185100       3.20733500       2.07139100
N        1.77599700       2.89732600       2.97088100
H        1.52418300       3.10009000       3.93519200
H        2.54402500       3.52035300       2.73969500
H        0.33671100       4.24958400       2.21105200
H        0.98952300       3.12618700       1.04168900
Cu       2.39274900       1.05342300       2.88095800
18
Properties=species:S:1:pos:R:3 energy=-1967.192345286444 pbc="F F F"
C       -2.65796100       1.51170900       1.36455700
C       -1.54701700       2.33739400       1.27347300
C       -0.55766100       2.31603500       2.25856600
C       -0.71122400       1.45468400       3.34103200
C       -1.82247800       0.61809200       3.43161900
C       -2.79758500       0.64322100       2.44493000
H       -3.41336600       1.53822600       0.58950400
H       -3.65979800      -0.00758500       2.51370000
H       -1.44195400       3.00236600       0.42373200
H        0.01582300       1.42862800       4.14365800
H       -1.92263900      -0.04764300       4.27940400
C        0.62615600       3.23964200       2.10571500
N        1.78903200       2.86680600       2.94266000
H        1.56810200       3.04523800       3.91823700
H        2.55593200       3.49260700       2.71610700
H        0.32724800       4.26921400       2.32416400
H        0.94401100       3.22540700       1.06439700
Cu       2.34534300       0.99384800       2.75927200
18
Properties=species:S:1:pos:R:3 energy=-1967.192675993573 pbc="F F F"
C       -2.62980600       1.47785200       1.34480400
C       -1.52654500       2.31390500       1.25820800
C       -0.56340900       2.33201000       2.26813600
C       -0.73041500       1.49387900       3.36693800
C       -1.83388000       0.64699400       3.45316400
C       -2.78660200       0.63669700       2.44447300
H       -3.36567300       1.47480400       0.55066200
H       -3.64325300      -0.02169100       2.51003900
H       -1.40669400       2.95672100       0.39354800
H       -0.01655600       1.49372000       4.18143900
H       -1.94532400       0.00050800       4.31441500
C        0.60848900       3.27288600       2.13874200
N        1.79825200       2.84081100       2.91269000
H        1.61386200       2.98732600       3.90146200
H        2.56971600       3.46469000       2.69322600
H        0.31758900       4.28266100       2.44122000
H        0.90457800       3.32574600       1.09282800
Cu       2.27563600       0.94837100       2.62873300
18
Properties=species:S:1:pos:R:3 energy=-1967.192945881811 pbc="F F F"
C       -2.59893800       1.44293200       1.32545100
C       -1.50448800       2.29220800       1.24681900
C       -0.57002300       2.34896300       2.28181700
C       -0.75462100       1.53419000       3.39772900
C       -1.84834600       0.67463000       3.47475600
C       -2.77410600       0.62741600       2.44132700
H       -3.31263700       1.41002500       0.51198200
H       -3.62445700      -0.03956300       2.50089000
H       -1.36784500       2.91490300       0.37026400
H       -0.05840900       1.56380200       4.22680200
H       -1.97408000       0.04720900       4.34807400
C        0.59083000       3.30406800       2.17176200
N        1.80688200       2.81681900       2.87886000
H        1.66952800       2.92658000       3.88091600
H        2.58482400       3.43379300       2.65689100
H        0.31343100       4.28829000       2.55888800
H        0.86267600       3.42410800       1.12487800
Cu       2.19974400       0.91751500       2.49662400
18
Properties=species:S:1:pos:R:3 energy=-1967.193262632655 pbc="F F F"
C       -2.56673200       1.40995300       1.30780100
C       -1.48310400       2.27600800       1.24020100
C       -0.57879900       2.36955600       2.29914400
C       -0.78053600       1.57361500       3.42906200
C       -1.86128200       0.69823000       3.49320400
C       -2.75811000       0.61533400       2.43513100
H       -3.25773000       1.34887700       0.47661400
H       -3.59970000      -0.06333100       2.48583600
H       -1.33074700       2.88324000       0.35576500
H       -0.10367900       1.63284100       4.27238800
H       -2.00093300       0.08591100       4.37505500
C        0.57443800       3.33353700       2.20408200
N        1.81254500       2.79537300       2.84383300
H        1.73204500       2.87487500       3.85536900
H        2.60000100       3.39353900       2.59993600
H        0.31825100       4.28963000       2.66907400
H        0.81780100       3.51662700       1.15931800
Cu       2.10623600       0.89407100       2.39291600
18
Properties=species:S:1:pos:R:3 energy=-1967.193612464092 pbc="F F F"
C       -2.53080800       1.37880400       1.29179700
C       -1.46156000       2.26608800       1.23928400
C       -0.58837000       2.39312100       2.32045100
C       -0.80731200       1.61210800       3.46077800
C       -1.87224700       0.71845200       3.50934100
C       -2.73673200       0.60012600       2.42620400
H       -3.19733700       1.29021100       0.44337800
H       -3.56640000      -0.09386400       2.46516900
H       -1.29460200       2.86166800       0.34985500
H       -0.15586300       1.70406200       4.32117000
H       -2.02711100       0.11918000       4.39754200
C        0.56074100       3.36169600       2.23810600
N        1.81623600       2.77550600       2.80559900
H        1.79837700       2.82615100       3.82196800
H        2.61215900       3.34613600       2.52542000
H        0.33172000       4.28954300       2.77033800
H        0.76930500       3.60278600       1.19778200
Cu       1.98976900       0.87611200       2.31054600
18
Properties=species:S:1:pos:R:3 energy=-1967.19387462829 pbc="F F F"
C       -2.49152100       1.34858100       1.27737900
C       -1.43707600       2.25615900       1.23955700
C       -0.59740400       2.41647100       2.34196100
C       -0.83465100       1.65042700       3.49076000
C       -1.88346000       0.73899500       3.52495500
C       -2.71383500       0.58601100       2.41830300
H       -3.13243400       1.23297000       0.41272300
H       -3.53098300      -0.12327400       2.44605100
H       -1.25560100       2.84015300       0.34545600
H       -0.20914400       1.77314100       4.36674800
H       -2.05482700       0.15271000       4.41872700
C        0.54943100       3.38840100       2.27553000
N        1.81644700       2.75590100       2.76458100
H        1.85925800       2.77526000       3.78109100
H        2.61617600       3.29819600       2.44541900
H        0.34877000       4.28526900       2.86881200
H        0.71983500       3.68859900       1.24381200
Cu       1.87098300       0.86391600       2.23286300
18
Properties=species:S:1:pos:R:3 energy=-1967.194111121273 pbc="F F F"
C       -2.45158400       1.31700200       1.26456900
C       -1.40714200       2.23768600       1.23913800
C       -0.60400300       2.43105000       2.36255800
C       -0.86688300       1.68602100       3.52063400
C       -1.90488100       0.76312200       3.54299300
C       -2.69910200       0.57667300       2.41416800
H       -3.06528800       1.17570000       0.38416600
H       -3.50862500      -0.14163400       2.43297600
H       -1.20656700       2.80622000       0.33922300
H       -0.26799300       1.83750400       4.41089300
H       -2.09840600       0.19448400       4.44358700
C        0.53923500       3.40844200       2.31734000
N        1.81895700       2.73948400       2.71849300
H        1.91851900       2.72070100       3.73084400
H        2.61206500       3.27192600       2.36933900
H        0.36422300       4.26512800       2.97410000
H        0.67130300       3.77522100       1.30170100
Cu       1.79613600       0.86315800       2.12800600
18
Properties=species:S:1:pos:R:3 energy=-1967.19432015706 pbc="F F F"
C       -2.40849600       1.28429400       1.25408000
C       -1.37438700       2.21671000       1.24273100
C       -0.61200100       2.44327000       2.38719400
C       -0.90666400       1.72380300       3.55141800
C       -1.93445200       0.79013900       3.56236600
C       -2.68770100       0.56868600       2.41171500
H       -2.99320500       1.11824500       0.35836300
H       -3.49067200      -0.15726000       2.42174200
H       -1.15520000       2.76999000       0.33727800
H       -0.33724600       1.90356800       4.45622600
H       -2.15566600       0.24211400       4.46932900
C        0.53460800       3.41964000       2.36434100
N        1.82187500       2.72460100       2.66901200
H        1.97281200       2.66194700       3.67236300
H        2.60177800       3.25416200       2.29244800
H        0.38209400       4.23570000       3.07398100
H        0.62074800       3.85507200       1.37093300
Cu       1.76174100       0.87320700       1.99920700
18
Properties=species:S:1:pos:R:3 energy=-1967.19444243569 pbc="F F F"
C       -2.37108000       1.25595500       1.24646300
C       -1.34084900       2.19313600       1.24415600
C       -0.61552500       2.45111400       2.40650700
C       -0.93993800       1.75468800       3.57850300
C       -1.96041700       0.81340300       3.57797000
C       -2.67941900       0.56327400       2.41069600
H       -2.92816200       1.06737200       0.33764800
H       -3.47835900      -0.16704000       2.41242700
H       -1.09596300       2.72760600       0.33428900
H       -0.39199000       1.95452800       4.49203100
H       -2.20168600       0.28023000       4.48868100
C        0.52486700       3.43235000       2.40110600
N        1.82532700       2.71639500       2.61736100
H        2.02430700       2.62264900       3.61019100
H        2.59472300       3.25747100       2.22827200
H        0.40279600       4.19430500       3.17461200
H        0.58770100       3.92767300       1.43479200
Cu       1.68363300       0.88277900       1.89902200
18
Properties=species:S:1:pos:R:3 energy=-1967.194630524579 pbc="F F F"
C       -2.33792700       1.23010100       1.24340700
C       -1.31232600       2.17100000       1.24969000
C       -0.62012400       2.45569700       2.42669300
C       -0.97349400       1.78384200       3.60138800
C       -1.98955500       0.83736100       3.59362500
C       -2.67597100       0.56010300       2.41345100
H       -2.87227800       1.02367900       0.32479200
H       -3.47251500      -0.17282100       2.40941800
H       -1.05068500       2.69185400       0.33627300
H       -0.44626500       2.00213400       4.52312900
H       -2.25308200       0.32128200       4.50803000
C        0.52385100       3.43292700       2.43301600
N        1.82708200       2.70848400       2.57514500
H        2.04899000       2.57602700       3.55860000
H        2.58655800       3.26565100       2.18989000
H        0.41973600       4.15482000       3.24556900
H        0.55929300       3.97837100       1.49257200
Cu       1.67867900       0.90737500       1.77003700
18
Properties=species:S:1:pos:R:3 energy=-1967.194891280934 pbc="F F F"
C       -2.28942100       1.19317000       1.24302200
C       -1.27313400       2.14239800       1.26222900
C       -0.62590000       2.46221700       2.45728900
C       -1.01958800       1.82326600       3.63317200
C       -2.03161300       0.87167000       3.61542700
C       -2.66930700       0.55480300       2.41897000
H       -2.78976600       0.95987100       0.31172500
H       -3.46160200      -0.18262900       2.40629200
H       -0.98699800       2.64433900       0.34515300
H       -0.52634100       2.07072600       4.56645600
H       -2.32914800       0.38175100       4.53379600
C        0.52501600       3.43124700       2.47421100
N        1.82589800       2.69655000       2.51743700
H        2.07151200       2.49827900       3.48417900
H        2.57450800       3.27854500       2.15050700
H        0.44874600       4.10131400       3.33179800
H        0.52504900       4.03666400       1.57018600
Cu       1.67205500       0.96370800       1.57288000
18
Properties=species:S:1:pos:R:3 energy=-1967.195160846387 pbc="F F F"
C       -2.23749700       1.15566700       1.24708900
C       -1.23325600       2.11568100       1.27945700
C       -0.63088100       2.46983400       2.49052500
C       -1.06374300       1.86182500       3.66420100
C       -2.07261900       0.90557300       3.63609300
C       -2.65920100       0.54824200       2.42641100
H       -2.70264400       0.89473800       0.30494300
H       -3.44637900      -0.19446500       2.40479900
H       -0.92342700       2.60048600       0.36031200
H       -0.60894600       2.14081500       4.60816800
H       -2.40583500       0.44287700       4.55631900
C        0.52919700       3.42778000       2.51072300
N        1.81954700       2.68270700       2.46104300
H        2.07608300       2.40767400       3.40628700
H        2.56391600       3.28721100       2.12818700
H        0.48216700       4.05221400       3.40281500
H        0.49806900       4.08251500       1.64163600
Cu       1.65541500       1.04651400       1.36572000
18
Properties=species:S:1:pos:R:3 energy=-1967.195290483459 pbc="F F F"
C       -2.20033800       1.12402800       1.25571500
C       -1.19967600       2.08627000       1.29568800
C       -0.63132700       2.46905300       2.51800100
C       -1.09680000       1.88847900       3.68925100
C       -2.10897800       0.93339600       3.65392000
C       -2.65709800       0.54500800       2.43770300
H       -2.63981100       0.84188600       0.30741000
H       -3.44429500      -0.19750700       2.41053300
H       -0.87064200       2.55731900       0.37548600
H       -0.67439900       2.19280600       4.64023300
H       -2.47183300       0.49575900       4.57515300
C        0.53379900       3.42178900       2.53153900
N        1.81526200       2.67154800       2.41937200
H        2.05825900       2.31547800       3.34164700
H        2.56291100       3.30079700       2.15004400
H        0.51036400       4.01844600       3.44289500
H        0.48150300       4.10323300       1.68371400
Cu       1.67306600       1.16010000       1.16642300
18
Properties=species:S:1:pos:R:3 energy=-1967.195173916889 pbc="F F F"
C       -2.17764100       1.09832500       1.25699000
C       -1.17077100       2.05316400       1.29830100
C       -0.63146400       2.46177500       2.52405800
C       -1.13080700       1.91469100       3.69680900
C       -2.14093300       0.95875900       3.66013400
C       -2.66511100       0.54706400       2.44004300
H       -2.59888600       0.80053300       0.30501800
H       -3.45489300      -0.19268400       2.41162400
H       -0.82079000       2.50262600       0.37506500
H       -0.71574100       2.22987300       4.64786400
H       -2.52264700       0.53802900       4.58170900
C        0.53553900       3.41188300       2.56777400
N        1.82049200       2.68106600       2.37876000
H        2.10287400       2.30948300       3.28286400
H        2.55311600       3.32551100       2.09600400
H        0.53426200       3.94266400       3.51946000
H        0.46140100       4.15205900       1.77357800
Cu       1.66196500       1.19306500       1.07867500
18
Properties=species:S:1:pos:R:3 energy=-1967.19527548345 pbc="F F F"
C       -2.22933200       1.13574200       1.25238300
C       -1.21587400       2.08507900       1.28450500
C       -0.62898000       2.45674800       2.49734900
C       -1.09400500       1.88221100       3.67747000
C       -2.10311400       0.92539800       3.64766700
C       -2.67310100       0.55063600       2.43499200
H       -2.68304800       0.86300100       0.30793100
H       -3.46328000      -0.18904000       2.41277000
H       -0.89323800       2.55861400       0.36285500
H       -0.64653100       2.16806700       4.62319600
H       -2.44859900       0.47584000       4.56994500
C        0.53020500       3.41763300       2.52353700
N        1.83319700       2.68544000       2.43642900
H        2.08400000       2.35961600       3.36696600
H        2.57171500       3.32136800       2.14509100
H        0.50903400       4.01539600       3.43588100
H        0.47422700       4.09723100       1.67625600
Cu       1.71669200       1.11890700       1.23950800
18
Properties=species:S:1:pos:R:3 energy=-1967.19477527716 pbc="F F F"
C       -2.17684500       1.11651900       1.26025300
C       -1.18695300       2.08984000       1.31623400
C       -0.62415100       2.46512500       2.54452800
C       -1.10144500       1.87806300       3.71041400
C       -2.12705300       0.93444500       3.66018300
C       -2.65107800       0.54103600       2.43676800
H       -2.60357000       0.83228900       0.30728000
H       -3.43918900      -0.20003700       2.39828900
H       -0.85666300       2.57465700       0.40055600
H       -0.71275600       2.19760300       4.66999800
H       -2.51385500       0.50789600       4.57677000
C        0.53850600       3.42106500       2.52908200
N        1.81762200       2.66777100       2.40153500
H        2.06569100       2.27995800       3.31127700
H        2.55207400       3.30125800       2.12850000
H        0.53721300       4.03267900       3.42746200
H        0.45219600       4.09336800       1.67259900
Cu       1.67022300       1.19435400       1.14299800
18
Properties=species:S:1:pos:R:3 energy=-1967.195417411099 pbc="F F F"
C       -2.20790700       1.12642100       1.25550500
C       -1.20191300       2.08341700       1.29507300
C       -0.62992100       2.46346700       2.51487000
C       -1.09716000       1.88415600       3.68904200
C       -2.11153300       0.93194300       3.65333800
C       -2.66446300       0.54777200       2.43712900
H       -2.64934800       0.84624600       0.30754100
H       -3.45411000      -0.19214300       2.41009300
H       -0.87050500       2.55351800       0.37514600
H       -0.66924500       2.18273500       4.63920800
H       -2.47219400       0.49269500       4.57469600
C        0.53063400       3.42062300       2.52894900
N        1.82162800       2.67781300       2.42098500
H        2.06906000       2.32426500       3.34264700
H        2.56408300       3.31262300       2.14623500
H        0.51639700       4.01658300       3.44138900
H        0.47242400       4.10013800       1.68029700
Cu       1.69403900       1.15561800       1.18258600
18
Properties=species:S:1:pos:R:3 energy=-1967.195440914513 pbc="F F F"
C       -2.20784900       1.12463300       1.25588400
C       -1.20168300       2.08148700       1.29431200
C       -0.63070700       2.46388300       2.51350900
C       -1.10018300       1.88860000       3.68896400
C       -2.11194700       0.93383500       3.65413900
C       -2.66426800       0.54733700       2.43812900
H       -2.64888900       0.84288400       0.30818100
H       -3.45315400      -0.19345600       2.41191600
H       -0.87006500       2.55050600       0.37381700
H       -0.67177000       2.18814400       4.63882300
H       -2.47149200       0.49464000       4.57597200
C        0.53050500       3.42030700       2.52974500
N        1.82169700       2.67674200       2.42042400
H        2.06488700       2.31527300       3.34019400
H        2.56671200       3.31296200       2.15418400
H        0.51849400       4.01453000       3.44365500
H        0.47255900       4.10141700       1.68269700
Cu       1.69711900       1.16416400       1.17018300
18
Properties=species:S:1:pos:R:3 energy=-1967.195524705954 pbc="F F F"
C       -2.20419400       1.11881400       1.25623800
C       -1.19797600       2.07650300       1.29133700
C       -0.63280200       2.46735800       2.50943100
C       -1.10442400       1.89868600       3.68788300
C       -2.11096600       0.93965400       3.65594800
C       -2.66127500       0.54657000       2.44020100
H       -2.64350500       0.83236900       0.30914800
H       -3.44900100      -0.19551600       2.41653600
H       -0.86248900       2.53929700       0.36927100
H       -0.67497300       2.20208000       4.63628100
H       -2.46889400       0.50186600       4.57910800
C        0.52782300       3.42273700       2.53452500
N        1.81639900       2.67419100       2.41734400
H        2.05284500       2.29174600       3.33075500
H        2.56936200       3.31055200       2.17129900
H        0.52160900       4.00723300       3.45483500
H        0.47489400       4.11096700       1.69291700
Cu       1.68753200       1.18278100       1.14167200
18
Properties=species:S:1:pos:R:3 energy=-1967.195629059573 pbc="F F F"
C       -2.19026500       1.10703900       1.25814000
C       -1.18571500       2.06765100       1.29308400
C       -0.63380400       2.47137100       2.51233900
C       -1.11447900       1.91215600       3.69289600
C       -2.11734300       0.94979700       3.66061400
C       -2.65577300       0.54441900       2.44291700
H       -2.62072800       0.81123100       0.30990300
H       -3.44135400      -0.19992800       2.41911900
H       -0.84320600       2.52392500       0.37009600
H       -0.69318800       2.22513900       4.64177200
H       -2.48112800       0.51773500       4.58417400
C        0.52658900       3.42609500       2.54367700
N        1.81021900       2.67075800       2.40335700