18
Properties=species:S:1:pos:R:3 energy=-1967.169378567651 pbc="F F F"
C       -2.78160000       1.62225000       1.41563000
C       -1.61854000       2.38835000       1.29308000
C       -0.56584000       2.24109000       2.21106000
C       -0.70074000       1.30521000       3.25809000
C       -1.86682000       0.54178000       3.37625000
C       -2.90589000       0.69993000       2.45665000
H       -3.58678000       1.74390000       0.70260000
H       -3.80681000       0.10737000       2.55029000
H       -1.53915000       3.09887000       0.47943000
H        0.08521000       1.15562000       3.98572000
H       -1.96431000      -0.17437000       4.18209000
C        0.66625000       3.09585000       2.02163000
N        1.69508000       2.84655000       3.02619000
H        1.35682000       3.19224000       3.95390000
H        2.53775000       3.40814000       2.76861000
H        0.37930000       4.17082000       2.04680000
H        0.97211800       2.96935600       0.95548500
Cu       3.28391800       1.51493200       3.21122400
18
Properties=species:S:1:pos:R:3 energy=-1967.176764499839 pbc="F F F"
C       -2.77507200       1.61506900       1.42007300
C       -1.62416200       2.38695800       1.29877800
C       -0.57377400       2.25203400       2.21083700
C       -0.69696900       1.32286400       3.24703200
C       -1.85025100       0.54887400       3.36826600
C       -2.89073700       0.69307700       2.45687200
H       -3.58025200       1.73082800       0.70591600
H       -3.78524600       0.09086300       2.55233600
H       -1.54714400       3.09946600       0.48564300
H        0.09720600       1.18534600       3.96791900
H       -1.93481100      -0.16769100       4.17526700
C        0.65264100       3.11640600       2.02448300
N        1.69677600       2.87238100       3.01933500
H        1.38337600       3.20815100       3.92304700
H        2.53436300       3.40164800       2.77837900
H        0.36264400       4.17531200       2.04762300
H        1.00886900       2.96534400       1.00189000
Cu       3.16250900       1.43095800       3.21103400
18
Properties=species:S:1:pos:R:3 energy=-1967.182585198044 pbc="F F F"
C       -2.76330800       1.60309000       1.42395800
C       -1.62862000       2.38767700       1.30372400
C       -0.57759200       2.26787300       2.20972300
C       -0.68469200       1.34408800       3.23676200
C       -1.82298400       0.55401000       3.36242400
C       -2.86605200       0.67931300       2.45849400
H       -3.56920000       1.70999900       0.70878800
H       -3.75135000       0.06390400       2.55632500
H       -1.55643800       3.10426100       0.49262100
H        0.11943900       1.22562100       3.95053900
H       -1.89045700      -0.16215700       4.17189400
C        0.63820800       3.14666000       2.02190800
N        1.70295100       2.90944500       3.00580000
H        1.41312000       3.23573900       3.90925100
H        2.55000900       3.39845500       2.78153200
H        0.34118100       4.19274500       2.05234900
H        1.06094800       2.96769300       1.04372900
Cu       2.92480300       1.29947200       3.20490700
18
Properties=species:S:1:pos:R:3 energy=-1967.186438621002 pbc="F F F"
C       -2.75070100       1.59397000       1.42656600
C       -1.62496700       2.38748700       1.30650000
C       -0.56973900       2.27314900       2.20843500
C       -0.66979400       1.35117800       3.23476500
C       -1.80089200       0.55094100       3.36161100
C       -2.84507300       0.66617700       2.45986200
H       -3.55772000       1.69708800       0.71191600
H       -3.72520300       0.04372200       2.55834800
H       -1.55601500       3.10904500       0.49924600
H        0.13655100       1.24772200       3.94861900
H       -1.85955000      -0.16355100       4.17349000
C        0.63319200       3.16759000       2.01640600
N        1.71755900       2.94156900       2.99215800
H        1.44410500       3.25882300       3.90715700
H        2.57684700       3.41226500       2.77252100
H        0.32330100       4.20728100       2.06120400
H        1.09950600       2.97838500       1.05958900
Cu       2.66855700       1.20504700       3.19633500
18
Properties=species:S:1:pos:R:3 energy=-1967.189334573682 pbc="F F F"
C       -2.72664000       1.57254600       1.41258600
C       -1.60544200       2.37587800       1.30184200
C       -0.55798100       2.27415800       2.21924700
C       -0.67308100       1.36538200       3.26196600
C       -1.80259600       0.55851700       3.37967600
C       -2.83086100       0.65418200       2.45610300
H       -3.52258800       1.66148900       0.68384700
H       -3.70868900       0.02776100       2.54737700
H       -1.52717700       3.09013700       0.48947600
H        0.11152800       1.28988900       4.00422300
H       -1.87285300      -0.14012100       4.20419300
C        0.63003000       3.18644400       2.02801800
N        1.74537300       2.94636500       2.97529800
H        1.50113900       3.21456500       3.92248100
H        2.59146400       3.45097400       2.74763200
H        0.30475600       4.22170200       2.11937800
H        1.09130500       3.03110600       1.05589500
Cu       2.49227700       1.14691200       3.08549100
18
Properties=species:S:1:pos:R:3 energy=-1967.190995500995 pbc="F F F"
C       -2.70578700       1.55420900       1.39713300
C       -1.58374800       2.36185500       1.29162000
C       -0.55158700       2.28057200       2.23278500
C       -0.68416100       1.38650400       3.29310600
C       -1.81134700       0.57219600       3.39940300
C       -2.82264600       0.64997500       2.45294700
H       -3.49012200       1.62712400       0.65440300
H       -3.69810500       0.01922800       2.53597500
H       -1.49500000       3.06233100       0.46917500
H        0.07759500       1.32977100       4.06143300
H       -1.89440900      -0.11433200       4.23248600
C        0.62941400       3.19975100       2.04608800
N        1.76274800       2.92804300       2.96589800
H        1.54661100       3.15312300       3.93669700
H        2.58080200       3.48031000       2.72228400
H        0.30170000       4.23429200       2.18084100
H        1.04578200       3.09064800       1.04327200
Cu       2.43222400       1.11228600       2.97918200
18
Properties=species:S:1:pos:R:3 energy=-1967.191839768689 pbc="F F F"
C       -2.68373700       1.53391200       1.38296600
C       -1.56602400       2.35070500       1.28013200
C       -0.55148200       2.29908700       2.24340600
C       -0.68992300       1.41775000       3.31572500
C       -1.81031500       0.59272500       3.41658700
C       -2.80771400       0.64721600       2.45236300
H       -3.45732700       1.58442300       0.62735900
H       -3.67707100       0.00729800       2.53034100
H       -1.47053900       3.03376900       0.44428800
H        0.05934300       1.37384400       4.09703900
H       -1.89844600      -0.08516900       4.25593400
C        0.62657400       3.22130900       2.06781300
N        1.76942400       2.90065900       2.95594600
H        1.57370400       3.09857800       3.93719100
H        2.56972600       3.47752000       2.70397700
H        0.30948800       4.25488200       2.24570800
H        0.99234200       3.16000800       1.04144700
Cu       2.35194300       1.05937100       2.89650400
18
Properties=species:S:1:pos:R:3 energy=-1967.192389844791 pbc="F F F"
C       -2.65615900       1.50328400       1.36334600
C       -1.54580600       2.33182700       1.26992700
C       -0.55661600       2.31556900       2.25883900
C       -0.71180600       1.45748000       3.34786700
C       -1.82347200       0.62005700       3.43912600
C       -2.79617000       0.64028000       2.44876900
H       -3.41048000       1.52455800       0.58719900
H       -3.65927400      -0.00906100       2.51929800
H       -1.43724600       2.99295700       0.41821900
H        0.01432800       1.43901000       4.15145900
H       -1.92552800      -0.04025900       4.29077000
C        0.61903300       3.24672700       2.10290800
N        1.78747800       2.87048700       2.93043500
H        1.61773900       3.02926700       3.92207400
H        2.56938500       3.47166500       2.68011100
H        0.31493400       4.27151600       2.34408800
H        0.93194200       3.25179800       1.05865000
Cu       2.30768200       1.01072700       2.76164400
18
Properties=species:S:1:pos:R:3 energy=-1967.192829605991 pbc="F F F"
C       -2.62427100       1.46852800       1.34363400
C       -1.52222400       2.30866500       1.25724300
C       -0.56372200       2.33524300       2.27277300
C       -0.73401800       1.50198000       3.37781400
C       -1.83518700       0.65143700       3.46201500
C       -2.78194500       0.63293800       2.44684700
H       -3.35725500       1.45775200       0.54707600
H       -3.63776100      -0.02666100       2.51180700
H       -1.39942900       2.94628700       0.38952700
H       -0.02871200       1.51221100       4.19948300
H       -1.95077100       0.01067000       4.32682500
C        0.60612900       3.27828800       2.14185300
N        1.80083500       2.83911300       2.89796500
H        1.65607800       2.96076200       3.89730900
H        2.57714700       3.44909100       2.65676800
H        0.31753100       4.28589000       2.45982200
H        0.87596500       3.35503700       1.08967000
Cu       2.24157500       0.96066000       2.61629900
18
Properties=species:S:1:pos:R:3 energy=-1967.193251390179 pbc="F F F"
C       -2.57773700       1.42345200       1.32030600
C       -1.49122300       2.28490500       1.24780800
C       -0.57403100       2.36469000       2.29514800
C       -0.76498600       1.55988300       3.41818700
C       -1.84839900       0.68740900       3.48859700
C       -2.75764600       0.61779100       2.44126300
H       -3.27958100       1.37145200       0.49770000
H       -3.60053400      -0.05918900       2.49543900
H       -1.34892200       2.89634600       0.36431800
H       -0.08720500       1.60870900       4.26147500
H       -1.98082900       0.06804600       4.36656600
C        0.58728900       3.32132500       2.19174300
N        1.81433700       2.80374400       2.84592200
H        1.71501400       2.89235200       3.85318600
H        2.59752400       3.40242900       2.60125100
H        0.32532800       4.29662700       2.61282500
H        0.81152500       3.48531400       1.13993800
Cu       2.10004100       0.90260400       2.45305600
18
Properties=species:S:1:pos:R:3 energy=-1967.193503199073 pbc="F F F"
C       -2.54171600       1.39040400       1.30348600
C       -1.46922800       2.27118100       1.24476300
C       -0.58388500       2.38756700       2.31483800
C       -0.79313000       1.60134300       3.44952600
C       -1.86091800       0.71020700       3.50593900
C       -2.73860600       0.60306500       2.43397900
H       -3.21867100       1.31032900       0.46245300
H       -3.57019500      -0.08840800       2.47775500
H       -1.31271500       2.86878500       0.35437200
H       -0.13800700       1.68154100       4.30863900
H       -2.00767400       0.10527000       4.39168900
C        0.57214000       3.35210300       2.22916900
N        1.82144300       2.77972300       2.80246900
H        1.77326600       2.85574900       3.81485400
H        2.61166700       3.35749100       2.53282100
H        0.33530200       4.29523000       2.72882600
H        0.76687200       3.57914900       1.18333600
Cu       1.99401900       0.86715900       2.35581400
18
Properties=species:S:1:pos:R:3 energy=-1967.193829652742 pbc="F F F"
C       -2.48934100       1.34574400       1.28176300
C       -1.43361300       2.24950600       1.24216300
C       -0.59464800       2.41243300       2.34315000
C       -0.83401200       1.65059900       3.49138400
C       -1.88424900       0.73974900       3.52891900
C       -2.71550300       0.58525300       2.42431800
H       -3.13056400       1.23082700       0.41711300
H       -3.53434100      -0.12190700       2.45417900
H       -1.25472100       2.83052800       0.34531500
H       -0.21263400       1.77380200       4.37051900
H       -2.05686900       0.15713500       4.42490000
C        0.55166000       3.38886000       2.28320000
N        1.82828000       2.75321900       2.73877700
H        1.86670000       2.80638000       3.75399200
H        2.61888800       3.30564900       2.41818500
H        0.35081100       4.27568300       2.88853500
H        0.70530600       3.70546100       1.25401000
Cu       1.85881500       0.83896600       2.23430700
18
Properties=species:S:1:pos:R:3 energy=-1967.194099553994 pbc="F F F"
C       -2.42993200       1.30064300       1.26271300
C       -1.39127500       2.22650400       1.24225600
C       -0.60468800       2.43690400       2.37412200
C       -0.87825900       1.70104200       3.53393400
C       -1.91071600       0.77124100       3.55228200
C       -2.69025600       0.56940000       2.41625400
H       -3.03171000       1.14989000       0.37555400
H       -3.49685700      -0.15210400       2.43232500
H       -1.18587500       2.78938500       0.33974300
H       -0.29304000       1.86741100       4.43114700
H       -2.11335600       0.21200900       4.45679300
C        0.53394200       3.42048600       2.34053400
N        1.82735200       2.72932100       2.67002300
H        1.95805500       2.74346200       3.67947900
H        2.60890700       3.26218500       2.29464700
H        0.37612800       4.23920500       3.04505100
H        0.64257300       3.83084500       1.33908500
Cu       1.71897100       0.83006100       2.10878500
18
Properties=species:S:1:pos:R:3 energy=-1967.194367447881 pbc="F F F"
C       -2.35573200       1.24819000       1.24656300
C       -1.33743200       2.19832800       1.24867200
C       -0.61761200       2.46356200       2.41424700
C       -0.94005900       1.76291600       3.58508900
C       -1.95155400       0.81172400       3.58066400
C       -2.66211400       0.55273400       2.41007800
H       -2.90686100       1.05477300       0.33517800
H       -3.45363600      -0.18550700       2.40921100
H       -1.09662400       2.73809900       0.34088600
H       -0.39976100       1.97587900       4.50063900
H       -2.19321000       0.27938500       4.49175000
C        0.52079500       3.44638100       2.40999300
N        1.82249400       2.70677400       2.58521000
H        2.05671500       2.65536500       3.57486100
H        2.58107800       3.23097600       2.15332500
H        0.41934600       4.17934700       3.21183900
H        0.57478900       3.96357400       1.45465900
Cu       1.57934100       0.84538800       1.94186600
18
Properties=species:S:1:pos:R:3 energy=-1967.194699819872 pbc="F F F"
C       -2.28103400       1.19531800       1.23972300
C       -1.27759200       2.16179200       1.26177900
C       -0.62659000       2.47879500       2.45640600
C       -1.00839500       1.82195200       3.63454400
C       -2.00545200       0.85663500       3.61032500
C       -2.64262100       0.54130300       2.41099100
H       -2.78088600       0.96174800       0.30846100
H       -3.42329600      -0.20834100       2.39500500
H       -0.99833300       2.67714400       0.35064000
H       -0.51446100       2.07743000       4.56505000
H       -2.29270700       0.35500400       4.52554800
C        0.51607200       3.45589100       2.47691500
N        1.81624000       2.69446900       2.50263300
H        2.13505500       2.55306500       3.45897400
H        2.54498400       3.23199000       2.03757900
H        0.46751400       4.10328800       3.35336400
H        0.51727900       4.07113500       1.57955600
Cu       1.49419100       0.89927000       1.72723700
18
Properties=species:S:1:pos:R:3 energy=-1967.195369739241 pbc="F F F"
C       -2.15557300       1.10753800       1.24484900
C       -1.16332000       2.08512400       1.29609100
C       -0.62778400       2.48316800       2.52609300
C       -1.11530300       1.90378100       3.70316100
C       -2.10367100       0.93083000       3.65008700
C       -2.62173000       0.53010600       2.41922000
H       -2.57182100       0.81306900       0.29007700
H       -3.39546100      -0.22603500       2.38098900
H       -0.81404600       2.55517500       0.38406700
H       -0.70121000       2.22256400       4.65226900
H       -2.47536200       0.48613700       4.56426500
C        0.52221400       3.45025300       2.58588700
N        1.80163300       2.69566200       2.36270400
H        2.23359600       2.40134100       3.23455500
H        2.47752600       3.28034700       1.87664700
H        0.56307000       3.95348900       3.55240100
H        0.44488500       4.20401800       1.80458300
Cu       1.34232200       1.05132000       1.36678500
18
Properties=species:S:1:pos:R:3 energy=-1967.193253957435 pbc="F F F"
C       -2.02250700       1.00458000       1.27721000
C       -1.03256800       1.98232300       1.35489200
C       -0.61918700       2.46909100       2.60543900
C       -1.22097000       1.98259000       3.76122400
C       -2.21725000       1.01518000       3.68113200
C       -2.61028000       0.52123100       2.44100000
H       -2.35329100       0.64550600       0.31124900
H       -3.38401100      -0.23365500       2.38271400
H       -0.61597800       2.40560100       0.44561800
H       -0.89277300       2.35839100       4.72131900
H       -2.68180400       0.63736500       4.58272400
C        0.55105400       3.41568300       2.68127600
N        1.77701600       2.71093400       2.23172600
H        2.25916100       2.21186100       2.97059500
H        2.43239600       3.35697000       1.80511000
H        0.67610400       3.79901300       3.69475400
H        0.40712200       4.27312700       2.02473100
Cu       1.18773200       1.37209700       0.92201600
18
Properties=species:S:1:pos:R:3 energy=-1967.195658298953 pbc="F F F"
C       -2.11784000       1.06220000       1.26409100
C       -1.11678500       2.02874800       1.32434600
C       -0.62132000       2.45884400       2.56435400
C       -1.15843000       1.92741300       3.73186200
C       -2.16353000       0.96635100       3.67097600
C       -2.63598800       0.52741400       2.43877100
H       -2.50912200       0.74837900       0.30494800
H       -3.41658900      -0.22116600       2.39481100
H       -0.76585700       2.49908400       0.40818400
H       -0.77957500       2.25935200       4.68986000
H       -2.57392600       0.55298700       4.58325800
C        0.54051800       3.42102300       2.61108200
N        1.81298900       2.71072400       2.31803000
H        2.23497000       2.31601700       3.15152100
H        2.48717800       3.33967700       1.89761000
H        0.59851300       3.91161400       3.58390600
H        0.42129500       4.20213600       1.86127700
Cu       1.40346500       1.21709000       1.09584100
18
Properties=species:S:1:pos:R:3 energy=-1967.195655810181 pbc="F F F"
C       -2.12422100       1.08308300       1.24999100
C       -1.13117100       2.05819500       1.30907600
C       -0.62331600       2.47750900       2.54253200
C       -1.14501400       1.92552200       3.71781500
C       -2.13367600       0.95285400       3.65814500
C       -2.62047800       0.52742500       2.42278700
H       -2.51559700       0.77054700       0.29039200
H       -3.39379700      -0.22884000       2.37901900
H       -0.76806900       2.51758900       0.39621500
H       -0.75618700       2.26040700       4.67298200
H       -2.53086700       0.52869200       4.57143400
C        0.52890700       3.43951100       2.61907000
N        1.80494600       2.70322700       2.30869400
H        2.25874100       2.38372600       3.16109500
H        2.46160700       3.31744200       1.83268300
H        0.60330600       3.88977700       3.60943800
H        0.41532500       4.23459700       1.88503500
Cu       1.30952700       1.08662400       1.26832500
18
Properties=species:S:1:pos:R:3 energy=-1967.196044174625 pbc="F F F"
C       -2.12852300       1.08900000       1.25752100
C       -1.13442500       2.06058600       1.31727300
C       -0.62078400       2.47476400       2.55097100
C       -1.12985500       1.91480200       3.72207300
C       -2.12830300       0.94850500       3.66320400
C       -2.62342500       0.53011800       2.43145000
H       -2.52207400       0.77766400       0.29839700
H       -3.39802600      -0.22480500       2.38763600
H       -0.77250200       2.51825000       0.40356600
H       -0.74117100       2.23605600       4.68132900
H       -2.52038200       0.52103100       4.57719200
C        0.53119100       3.43916200       2.59603100
N        1.80134200       2.69962000       2.32664800
H        2.19518600       2.33579600       3.18964800
H        2.49887200       3.31592800       1.91835700
H        0.58384600       3.94988300       3.55844800
H        0.42023600       4.19275400       1.81825700
Cu       1.32876200       1.14877400       1.19672900
18
Properties=species:S:1:pos:R:3 energy=-1967.19613858465 pbc="F F F"
C       -2.11582200       1.07298300       1.26133300
C       -1.12381500       2.04842900       1.32313500
C       -0.62378700       2.47516400       2.56184900
C       -1.14505400       1.92556700       3.72959300
C       -2.14254800       0.95700400       3.66748500
C       -2.62284400       0.52491300       2.43536600
H       -2.50671600       0.76028000       0.30166500
H       -3.39842800      -0.22868000       2.39052400
H       -0.77148300       2.51792900       0.40840200
H       -0.76421900       2.25142400       4.68935200
H       -2.54242200       0.53526600       4.58067600
C        0.53594700       3.43621300       2.60258400
N        1.80122100       2.69841800       2.31842000
H        2.19628400       2.31535800       3.17213000
H        2.49842900       3.31823000       1.92052100
H        0.59564700       3.93897500       3.56808000
H        0.42457200       4.19868500       1.83238100
Cu       1.34500600       1.18173200       1.13123300
18
Properties=species:S:1:pos:R:3 energy=-1967.196248624934 pbc="F F F"
C       -2.12041200       1.07812100       1.26150300
C       -1.13218800       2.05742000       1.32088100
C       -0.62571600       2.48241600       2.55808000
C       -1.13675800       1.92581100       3.72690200
C       -2.12986000       0.95225600       3.66705600
C       -2.61693900       0.52247200       2.43688300
H       -2.51487600       0.76639800       0.30296000
H       -3.38926100      -0.23452100       2.39404000
H       -0.78577800       2.53015300       0.40590200
H       -0.75272000       2.24846300       4.68687600
H       -2.52079100       0.52565700       4.58189000
C        0.53443900       3.44251300       2.59096300
N        1.79766200       2.68988700       2.32743700
H        2.15961100       2.29781100       3.19272100
H        2.51627700       3.30841600       1.96515100
H        0.58976500       3.96291800       3.54751000
H        0.43079100       4.18763800       1.80321000
Cu       1.33671900       1.18405900       1.12476300
18
Properties=species:S:1:pos:R:3 energy=-1967.19631578941 pbc="F F F"
C       -2.11795700       1.07856300       1.26081500
C       -1.13610000       2.06479800       1.31882900
C       -0.62881500       2.49241100       2.55543400
C       -1.13493700       1.93180600       3.72502300
C       -2.12164300       0.95162700       3.66598000
C       -2.60727000       0.51766700       2.43671300
H       -2.51116200       0.76474000       0.30247000
H       -3.37282000      -0.24616500       2.39485000
H       -0.79766400       2.54434900       0.40427400
H       -0.75098600       2.25738800       4.68431400
H       -2.50679600       0.52189300       4.58185200
C        0.53317200       3.44992700       2.58658200
N        1.79282300       2.68092400       2.32793600
H        2.13424600       2.28479500       3.20054100
H        2.52567700       3.29762900       1.98863300
H        0.59417200       3.96858800       3.54350100
H        0.43831500       4.19081600       1.79402100
Cu       1.30771200       1.17613400       1.12296300
18
Properties=species:S:1:pos:R:3 energy=-1967.196328164181 pbc="F F F"
C       -2.11360000       1.07662100       1.26066200
C       -1.13339300       2.06460600       1.31962500
C       -0.62920500       2.49416800       2.55717500
C       -1.13766500       1.93475100       3.72608700
C       -2.12317600       0.95317000       3.66589500
C       -2.60470800       0.51639400       2.43617900
H       -2.50382200       0.76112700       0.30165200
H       -3.36830000      -0.24934600       2.39355600
H       -0.79614200       2.54611600       0.40550100
H       -0.75580300       2.26264900       4.68539000
H       -2.51010600       0.52419800       4.58138000
C        0.53348400       3.45070500       2.58920400
N        1.79157900       2.68027700       2.32380600
H        2.13590000       2.28348000       3.19498300
H        2.52335200       3.29686900       1.98216500
H        0.59890600       3.96339000       3.54902000
H        0.43884600       4.19555600       1.80041100
Cu       1.29381900       1.17315600       1.12203700
18
Properties=species:S:1:pos:R:3 energy=-1967.196335992149 pbc="F F F"
C       -2.10808700       1.07463100       1.26048600
C       -1.12920400       2.06391600       1.32114600
C       -0.62909500       2.49529900       2.56032400
C       -1.14080900       1.93728400       3.72795800
C       -2.12582400       0.95480700       3.66580600
C       -2.60242400       0.51547500       2.43538300
H       -2.49455100       0.75751800       0.30048100
H       -3.36445600      -0.25173100       2.39143300
H       -0.79212700       2.54680500       0.40760800
H       -0.76157500       2.26696700       4.68764900
H       -2.51578600       0.52692100       4.58050000
C        0.53420400       3.45093900       2.59273500
N        1.79058200       2.68081400       2.31879700
H        2.14079200       2.28339000       3.18721300
H        2.51934700       3.29742000       1.97136200
H        0.60397400       3.95817400       3.55516800
H        0.43812200       4.20016200       1.80826400
Cu       1.27688400       1.16909700       1.12241500
18
Properties=species:S:1:pos:R:3 energy=-1967.196344606054 pbc="F F F"
C       -2.10589600       1.07418000       1.26029800
C       -1.12709900       2.06347800       1.32197700
C       -0.62850600       2.49506000       2.56213200
C       -1.14175200       1.93747800       3.72897100
C       -2.12711600       0.95511100       3.66563800
C       -2.60196800       0.51542500       2.43484700
H       -2.49103100       0.75692100       0.29980600
H       -3.36399100      -0.25174000       2.39010200
H       -0.78956800       2.54655000       0.40873600
H       -0.76366900       2.26711100       4.68912700
H       -2.51864800       0.52763000       4.57984500
C        0.53481600       3.45072300       2.59422500
N        1.79083800       2.68204700       2.31718500
H        2.14503900       2.28475600       3.18393400
H        2.51739700       3.29867000       1.96534300
H        0.60522400       3.95735500       3.55698200
H        0.43691300       4.20109500       1.81103300
Cu       1.26898400       1.16603700       1.12454700
18
Properties=species:S:1:pos:R:3 energy=-1967.196347639175 pbc="F F F"
C       -2.10599300       1.07476600       1.25997400
C       -1.12664400       2.06347000       1.32209000
C       -0.62772600       2.49429300       2.56263400
C       -1.14109300       1.93626000       3.72912400
C       -2.12706600       0.95446500       3.66526700
C       -2.60241300       0.51577900       2.43436000
H       -2.49156500       0.75832800       0.29938900
H       -3.36520500      -0.25059700       2.38926000
H       -0.78873100       2.54639700       0.40896900
H       -0.76309400       2.26477200       4.68971000
H       -2.51878600       0.52675600       4.57928500
C        0.53528800       3.45056400       2.59428300
N        1.79180900       2.68355500       2.31818500
H        2.14863100       2.28723100       3.18422400
H        2.51709600       3.29971100       1.96268400
H        0.60382800       3.95939500       3.55605700
H        0.43590800       4.19992900       1.81025500
Cu       1.26572100       1.16281400       1.12897600
18
Properties=species:S:1:pos:R:3 energy=-1967.196348126781 pbc="F F F"
C       -2.10724100       1.07552000       1.25974900
C       -1.12760600       2.06399400       1.32158600
C       -0.62750600       2.49413900       2.56184000
C       -1.13993000       1.93533500       3.72853400
C       -2.12594200       0.95371300       3.66497300
C       -2.60268200       0.51593100       2.43419700
H       -2.49394100       0.75976900       0.29939400
H       -3.36586200      -0.25006700       2.38929400
H       -0.78999700       2.54703400       0.40841600
H       -0.76133700       2.26299300       4.68918600
H       -2.51667300       0.52545300       4.57916000
C        0.53534900       3.45080300       2.59339500
N        1.79229200       2.68392500       2.32027600
H        2.14874800       2.28818400       3.18673000
H        2.51819800       3.29923000       1.96428400
H        0.60184900       3.96182400       3.55416000
H        0.43622300       4.19850100       1.80772900
Cu       1.26602300       1.16160700       1.13182300
18
Properties=species:S:1:pos:R:3 energy=-1967.196347466811 pbc="F F F"
C       -2.10811600       1.07589500       1.25965500
C       -1.12850600       2.06449000       1.32110600
C       -0.62760100       2.49438700       2.56100200
C       -1.13917500       1.93507300       3.72797700
C       -2.12496100       0.95334000       3.66483500
C       -2.60259700       0.51586500       2.43420700
H       -2.49554500       0.76036900       0.29952500
H       -3.36573500      -0.25018600       2.38958600
H       -0.79142100       2.54780900       0.40787100
H       -0.76009900       2.26242900       4.68854200
H       -2.51479600       0.52470500       4.57923200
C        0.53528800       3.45111800       2.59266100