
                                 *****************
                                 * O   R   C   A *
                                 *****************

                                            #,                                       
                                            ###                                      
                                            ####                                     
                                            #####                                    
                                            ######                                   
                                           ########,                                 
                                     ,,################,,,,,                         
                               ,,#################################,,                 
                          ,,##########################################,,             
                       ,#########################################, ''#####,          
                    ,#############################################,,   '####,        
                  ,##################################################,,,,####,       
                ,###########''''           ''''###############################       
              ,#####''   ,,,,##########,,,,          '''####'''          '####       
            ,##' ,,,,###########################,,,                        '##       
           ' ,,###''''                  '''############,,,                           
         ,,##''                                '''############,,,,        ,,,,,,###''
      ,#''                                            '''#######################'''  
     '                                                          ''''####''''         
             ,#######,   #######,   ,#######,      ##                                
            ,#'     '#,  ##    ##  ,#'     '#,    #''#        ######   ,####,        
            ##       ##  ##   ,#'  ##            #'  '#       #        #'  '#        
            ##       ##  #######   ##           ,######,      #####,   #    #        
            '#,     ,#'  ##    ##  '#,     ,#' ,#      #,         ##   #,  ,#        
             '#######'   ##     ##  '#######'  #'      '#     #####' # '####'        



                  #######################################################
                  #                        -***-                        #
                  #          Department of theory and spectroscopy      #
                  #    Directorship and core code : Frank Neese         #
                  #        Max Planck Institute fuer Kohlenforschung    #
                  #                Kaiser Wilhelm Platz 1               #
                  #                 D-45470 Muelheim/Ruhr               #
                  #                      Germany                        #
                  #                                                     #
                  #                  All rights reserved                #
                  #                        -***-                        #
                  #######################################################


                         Program Version 5.0.3 -  RELEASE  -


 With contributions from (in alphabetic order):
   Daniel Aravena         : Magnetic Suceptibility
   Michael Atanasov       : Ab Initio Ligand Field Theory (pilot matlab implementation)
   Alexander A. Auer      : GIAO ZORA, VPT2 properties, NMR spectrum
   Ute Becker             : Parallelization
   Giovanni Bistoni       : ED, misc. LED, open-shell LED, HFLD
   Martin Brehm           : Molecular dynamics
   Dmytro Bykov           : SCF Hessian
   Vijay G. Chilkuri      : MRCI spin determinant printing, contributions to CSF-ICE
   Dipayan Datta          : RHF DLPNO-CCSD density
   Achintya Kumar Dutta   : EOM-CC, STEOM-CC
   Dmitry Ganyushin       : Spin-Orbit,Spin-Spin,Magnetic field MRCI
   Miquel Garcia          : C-PCM and meta-GGA Hessian, CC/C-PCM, Gaussian charge scheme
   Yang Guo               : DLPNO-NEVPT2, F12-NEVPT2, CIM, IAO-localization
   Andreas Hansen         : Spin unrestricted coupled pair/coupled cluster methods
   Benjamin Helmich-Paris : MC-RPA, TRAH-SCF, COSX integrals
   Lee Huntington         : MR-EOM, pCC
   Robert Izsak           : Overlap fitted RIJCOSX, COSX-SCS-MP3, EOM
   Marcus Kettner         : VPT2
   Christian Kollmar      : KDIIS, OOCD, Brueckner-CCSD(T), CCSD density, CASPT2, CASPT2-K
   Simone Kossmann        : Meta GGA functionals, TD-DFT gradient, OOMP2, MP2 Hessian
   Martin Krupicka        : Initial AUTO-CI
   Lucas Lang             : DCDCAS
   Marvin Lechner         : AUTO-CI (C++ implementation), FIC-MRCC
   Dagmar Lenk            : GEPOL surface, SMD
   Dimitrios Liakos       : Extrapolation schemes; Compound Job, initial MDCI parallelization
   Dimitrios Manganas     : Further ROCIS development; embedding schemes
   Dimitrios Pantazis     : SARC Basis sets
   Anastasios Papadopoulos: AUTO-CI, single reference methods and gradients
   Taras Petrenko         : DFT Hessian,TD-DFT gradient, ASA, ECA, R-Raman, ABS, FL, XAS/XES, NRVS
   Peter Pinski           : DLPNO-MP2, DLPNO-MP2 Gradient
   Christoph Reimann      : Effective Core Potentials
   Marius Retegan         : Local ZFS, SOC
   Christoph Riplinger    : Optimizer, TS searches, QM/MM, DLPNO-CCSD(T), (RO)-DLPNO pert. Triples
   Tobias Risthaus        : Range-separated hybrids, TD-DFT gradient, RPA, STAB
   Michael Roemelt        : Original ROCIS implementation
   Masaaki Saitow         : Open-shell DLPNO-CCSD energy and density
   Barbara Sandhoefer     : DKH picture change effects
   Avijit Sen             : IP-ROCIS
   Kantharuban Sivalingam : CASSCF convergence, NEVPT2, FIC-MRCI
   Bernardo de Souza      : ESD, SOC TD-DFT
   Georgi Stoychev        : AutoAux, RI-MP2 NMR, DLPNO-MP2 response
   Willem Van den Heuvel  : Paramagnetic NMR
   Boris Wezisla          : Elementary symmetry handling
   Frank Wennmohs         : Technical directorship


 We gratefully acknowledge several colleagues who have allowed us to
 interface, adapt or use parts of their codes:
   Stefan Grimme, W. Hujo, H. Kruse, P. Pracht,  : VdW corrections, initial TS optimization,
                  C. Bannwarth, S. Ehlert          DFT functionals, gCP, sTDA/sTD-DF
   Ed Valeev, F. Pavosevic, A. Kumar             : LibInt (2-el integral package), F12 methods
   Garnet Chan, S. Sharma, J. Yang, R. Olivares  : DMRG
   Ulf Ekstrom                                   : XCFun DFT Library
   Mihaly Kallay                                 : mrcc  (arbitrary order and MRCC methods)
   Jiri Pittner, Ondrej Demel                    : Mk-CCSD
   Frank Weinhold                                : gennbo (NPA and NBO analysis)
   Christopher J. Cramer and Donald G. Truhlar   : smd solvation model
   Lars Goerigk                                  : TD-DFT with DH, B97 family of functionals
   V. Asgeirsson, H. Jonsson                     : NEB implementation
   FAccTs GmbH                                   : IRC, NEB, NEB-TS, DLPNO-Multilevel, CI-OPT
                                                   MM, QMMM, 2- and 3-layer-ONIOM, Crystal-QMMM,
                                                   LR-CPCM, SF, NACMEs, symmetry and pop. for TD-DFT,
                                                   nearIR, NL-DFT gradient (VV10), updates on ESD,
                                                   ML-optimized integration grids
   S Lehtola, MJT Oliveira, MAL Marques          : LibXC Library
   Liviu Ungur et al                             : ANISO software


 Your calculation uses the libint2 library for the computation of 2-el integrals
 For citations please refer to: http://libint.valeyev.net

 Your ORCA version has been built with support for libXC version: 5.1.0
 For citations please refer to: https://tddft.org/programs/libxc/

 This ORCA versions uses:
   CBLAS   interface :  Fast vector & matrix operations
   LAPACKE interface :  Fast linear algebra routines
   SCALAPACK package :  Parallel linear algebra routines
   Shared memory     :  Shared parallel matrices
   BLAS/LAPACK       :  OpenBLAS 0.3.15  USE64BITINT DYNAMIC_ARCH NO_AFFINITY Haswell SINGLE_THREADED
        Core in use  :  Haswell
   Copyright (c) 2011-2014, The OpenBLAS Project




***************************************
The coordinates will be read from file: reactant.xyz
***************************************


Your calculation utilizes the atom-pairwise dispersion correction
with the Becke-Johnson damping scheme (D3BJ)
Cite in your paper:
S.Grimme, S.Ehrlich, L.Goerigk, J Comput Chem, (2011), 32, 1456–1465 
S.Grimme, J.Antony, S.Ehrlich and H.Krieg, J.Chem.Phys., 132, (2010), 154104 
   

================================================================================

----- Orbital basis set information -----
Your calculation utilizes the basis: def2-TZVP
   F. Weigend and R. Ahlrichs, Phys. Chem. Chem. Phys. 7, 3297 (2005).

----- AuxJ basis set information -----
Your calculation utilizes the auxiliary basis: def2/J
   F. Weigend, Phys. Chem. Chem. Phys. 8, 1057 (2006).

================================================================================
                                        WARNINGS
                       Please study these warnings very carefully!
================================================================================


WARNING: Geometry Optimization
  ===> : Switching off AutoStart
         For restart on a previous wavefunction, please use MOREAD

INFO   : the flag for use of the SHARK integral package has been found!

================================================================================
                                       INPUT FILE
================================================================================
NAME = orca.inp
|  1> !B3LYP DEF2-TZVP D3BJ 
|  2> !OPT FREQ TIGHTOPT TightSCF defgrid2
|  3> %SCF
|  4>     MaxIter 2000       # Here setting MaxIter to a very high number. Intended for systems that require sometimes 1000 iterations before converging (very rare).
|  5>     DIISMaxEq 5        # Default value is 5. A value of 15-40 necessary for difficult systems.
|  6>     directresetfreq 15 # Default value is 15. A value of 1 (very expensive) is sometimes required. A value between 1 and 15 may be more cost-effective.
|  7> END
|  8> %CPCM EPSILON 6.02 REFRAC 1.3723 END
|  9> %PAL NPROCS 32 END
| 10> %maxcore 2000 # This indicates you want ORCA to use only 2GB per core maximum, so ORCA will use only 2GB*32=64GB of memory in total.
| 11> * xyzfile 1 1 reactant.xyz
| 12> 
| 13>                          ****END OF INPUT****
================================================================================

                       *****************************
                       * Geometry Optimization Run *
                       *****************************

Geometry optimization settings:
Update method            Update   .... BFGS
Choice of coordinates    CoordSys .... Z-matrix Internals
Initial Hessian          InHess   .... Almoef's Model

Convergence Tolerances:
Energy Change            TolE     ....  1.0000e-06 Eh
Max. Gradient            TolMAXG  ....  1.0000e-04 Eh/bohr
RMS Gradient             TolRMSG  ....  3.0000e-05 Eh/bohr
Max. Displacement        TolMAXD  ....  1.0000e-03 bohr
RMS Displacement         TolRMSD  ....  6.0000e-04 bohr
Strict Convergence                ....  False
------------------------------------------------------------------------------
                        ORCA OPTIMIZATION COORDINATE SETUP
------------------------------------------------------------------------------

The optimization will be done in new redundant internal coordinates
Making redundant internal coordinates   ...  (new redundants) done
Evaluating the initial hessian          ...  (Almloef) done
Evaluating the coordinates              ...  done
Calculating the B-matrix                .... done
Calculating the G-matrix                .... done
Diagonalizing the G-matrix              .... done
Small eigenvalue found = 1.999e-02
The first mode is                       ....   46
The number of degrees of freedom        ....   48

    -----------------------------------------------------------------
                    Redundant Internal Coordinates


    -----------------------------------------------------------------
         Definition                    Initial Value    Approx d2E/dq
    -----------------------------------------------------------------
      1. B(C   1,C   0)                  1.3981         0.606516   
      2. B(C   2,C   1)                  1.4045         0.592440   
      3. B(C   3,C   2)                  1.4108         0.578845   
      4. B(C   4,C   3)                  1.3988         0.605010   
      5. B(C   5,C   4)                  1.3965         0.609950   
      6. B(C   5,C   0)                  1.3964         0.610349   
      7. B(H   6,C   0)                  1.0824         0.370336   
      8. B(H   7,C   5)                  1.0824         0.370319   
      9. B(H   8,C   1)                  1.0831         0.369306   
     10. B(H   9,C   3)                  1.0815         0.371586   
     11. B(H  10,C   4)                  1.0825         0.370193   
     12. B(C  11,C   2)                  1.5115         0.399889   
     13. B(N  12,C  11)                  1.4594         0.433699   
     14. B(H  13,N  12)                  1.0462         0.378804   
     15. B(H  14,N  12)                  1.0449         0.380635   
     16. B(H  15,C  11)                  1.1129         0.331052   
     17. B(H  16,C  11)                  1.1163         0.326885   
     18. B(Cu 17,H  14)                  2.0825         0.095069   
     19. B(Cu 17,N  12)                  2.0813         0.446745   
     20. A(C   1,C   0,C   5)          120.0883         0.431136   
     21. A(C   1,C   0,H   6)          119.9682         0.353270   
     22. A(C   5,C   0,H   6)          119.9435         0.353647   
     23. A(C   0,C   1,C   2)          120.5830         0.428838   
     24. A(C   2,C   1,H   8)          120.3205         0.351703   
     25. A(C   0,C   1,H   8)          119.0964         0.353103   
     26. A(C   1,C   2,C   3)          118.8793         0.425265   
     27. A(C   3,C   2,C  11)          123.1002         0.396641   
     28. A(C   1,C   2,C  11)          118.0199         0.398262   
     29. A(C   4,C   3,H   9)          118.2635         0.353323   
     30. A(C   2,C   3,H   9)          121.4403         0.350691   
     31. A(C   2,C   3,C   4)          120.2961         0.426866   
     32. A(C   3,C   4,H  10)          119.9374         0.353098   
     33. A(C   3,C   4,C   5)          120.1873         0.430893   
     34. A(C   5,C   4,H  10)          119.8752         0.353585   
     35. A(C   0,C   5,C   4)          119.9659         0.431573   
     36. A(C   4,C   5,H   7)          120.0217         0.353605   
     37. A(C   0,C   5,H   7)          120.0124         0.353644   
     38. A(H  15,C  11,H  16)          101.6361         0.282743   
     39. A(N  12,C  11,H  16)          116.4158         0.325170   
     40. A(C   2,C  11,H  16)          106.1981         0.322795   
     41. A(N  12,C  11,H  15)          109.3422         0.325848   
     42. A(C   2,C  11,H  15)          109.4648         0.323466   
     43. A(C   2,C  11,N  12)          113.0663         0.374811   
     44. A(H  14,N  12,Cu 17)           75.5309         0.370588   
     45. A(H  13,N  12,Cu 17)          112.2956         0.370281   
     46. A(C  11,N  12,Cu 17)          135.1259         0.425500   
     47. A(H  13,N  12,H  14)          107.5624         0.290955   
     48. A(C  11,N  12,H  14)          107.8808         0.330601   
     49. A(C  11,N  12,H  13)          109.0263         0.330337   
     50. A(N  12,H  14,Cu 17)           75.4019         0.269992   
     51. A(N  12,Cu 17,H  14)           29.0671         0.341085   
     52. D(H   8,C   1,C   0,H   6)      0.0065         0.025390   
     53. D(C   2,C   1,C   0,H   6)    179.9950         0.025390   
     54. D(C   2,C   1,C   0,C   5)     -0.0196         0.025390   
     55. D(H   8,C   1,C   0,C   5)    179.9918         0.025390   
     56. D(C   3,C   2,C   1,C   0)      0.1037         0.024164   
     57. D(C  11,C   2,C   1,H   8)     -0.1791         0.024164   
     58. D(C   3,C   2,C   1,H   8)   -179.9079         0.024164   
     59. D(C  11,C   2,C   1,C   0)    179.8325         0.024164   
     60. D(H   9,C   3,C   2,C  11)      0.0664         0.023016   
     61. D(H   9,C   3,C   2,C   1)    179.7806         0.023016   
     62. D(C   4,C   3,C   2,C  11)   -179.8446         0.023016   
     63. D(C   4,C   3,C   2,C   1)     -0.1304         0.023016   
     64. D(C   5,C   4,C   3,H   9)   -179.8404         0.025257   
     65. D(H  10,C   4,C   3,C   2)   -179.9774         0.025257   
     66. D(C   5,C   4,C   3,C   2)      0.0734         0.025257   
     67. D(H  10,C   4,C   3,H   9)      0.1088         0.025257   
     68. D(H   7,C   5,C   4,H  10)      0.0158         0.025694   
     69. D(C   0,C   5,C   4,H  10)   -179.9368         0.025694   
     70. D(C   0,C   5,C   4,C   3)      0.0125         0.025694   
     71. D(H   7,C   5,C   0,H   6)     -0.0067         0.025730   
     72. D(C   4,C   5,C   0,H   6)    179.9459         0.025730   
     73. D(H   7,C   5,C   4,C   3)    179.9650         0.025694   
     74. D(C   4,C   5,C   0,C   1)     -0.0395         0.025730   
     75. D(H   7,C   5,C   0,C   1)   -179.9921         0.025730   
     76. D(H  16,C  11,C   2,C   3)    129.1110         0.011868   
     77. D(H  16,C  11,C   2,C   1)    -50.6055         0.011868   
     78. D(H  15,C  11,C   2,C   3)   -121.8972         0.011868   
     79. D(H  15,C  11,C   2,C   1)     58.3863         0.011868   
     80. D(N  12,C  11,C   2,C   3)      0.2649         0.011868   
     81. D(N  12,C  11,C   2,C   1)   -179.4517         0.011868   
     82. D(H  13,N  12,C  11,C   2)    -68.7279         0.017186   
     83. D(Cu 17,N  12,C  11,H  15)   -150.2705         0.017186   
     84. D(Cu 17,N  12,C  11,C   2)     87.4989         0.017186   
     85. D(H  14,N  12,C  11,H  16)     51.3714         0.017186   
     86. D(H  14,N  12,C  11,H  15)    -63.0253         0.017186   
     87. D(H  14,N  12,C  11,C   2)    174.7441         0.017186   
     88. D(H  13,N  12,C  11,H  16)    167.8993         0.017186   
     89. D(Cu 17,N  12,C  11,H  16)    -35.8739         0.017186   
     90. D(H  13,N  12,C  11,H  15)     53.5027         0.017186   
     91. D(Cu 17,H  14,N  12,H  13)    109.2262         0.173792   
     92. D(Cu 17,H  14,N  12,C  11)   -133.2961         0.173792   
     93. D(H  14,Cu 17,N  12,H  13)   -103.3560         0.002333   
     94. D(H  14,Cu 17,N  12,C  11)    100.9675         0.002333   
    -----------------------------------------------------------------

Number of atoms                         .... 18
Number of degrees of freedom            .... 94

         *************************************************************
         *                GEOMETRY OPTIMIZATION CYCLE   1            *
         *************************************************************
---------------------------------
CARTESIAN COORDINATES (ANGSTROEM)
---------------------------------
  C     -2.781600    1.622250    1.415630
  C     -1.618540    2.388350    1.293080
  C     -0.565840    2.241090    2.211060
  C     -0.700740    1.305210    3.258090
  C     -1.866820    0.541780    3.376250
  C     -2.905890    0.699930    2.456650
  H     -3.586780    1.743900    0.702600
  H     -3.806810    0.107370    2.550290
  H     -1.539150    3.098870    0.479430
  H      0.085210    1.155620    3.985720
  H     -1.964310   -0.174370    4.182090
  C      0.666250    3.095850    2.021630
  N      1.695080    2.846550    3.026190
  H      1.356820    3.192240    3.953900
  H      2.537750    3.408140    2.768610
  H      0.379300    4.170820    2.046800
  H      0.972118    2.969356    0.955485
  Cu     3.283918    1.514932    3.211224

----------------------------
CARTESIAN COORDINATES (A.U.)
----------------------------
  NO LB      ZA    FRAG     MASS         X           Y           Z
   0 C     6.0000    0    12.011   -5.256462    3.065608    2.675153
   1 C     6.0000    0    12.011   -3.058597    4.513327    2.443567
   2 C     6.0000    0    12.011   -1.069283    4.235046    4.178298
   3 C     6.0000    0    12.011   -1.324207    2.466489    6.156898
   4 C     6.0000    0    12.011   -3.527779    1.023816    6.380188
   5 C     6.0000    0    12.011   -5.491336    1.322676    4.642396
   6 H     1.0000    0     1.008   -6.778032    3.295493    1.327722
   7 H     1.0000    0     1.008   -7.193828    0.202900    4.819350
   8 H     1.0000    0     1.008   -2.908572    5.856016    0.905991
   9 H     1.0000    0     1.008    0.161024    2.183805    7.531919
  10 H     1.0000    0     1.008   -3.712008   -0.329512    7.903005
  11 C     6.0000    0    12.011    1.259030    5.850309    3.820327
  12 N     7.0000    0    14.007    3.203237    5.379200    5.718670
  13 H     1.0000    0     1.008    2.564018    6.032459    7.471788
  14 H     1.0000    0     1.008    4.795652    6.440451    5.231915
  15 H     1.0000    0     1.008    0.716773    7.881708    3.867891
  16 H     1.0000    0     1.008    1.837036    5.611270    1.805605
  17 Cu   29.0000    0    63.550    6.205705    2.862806    6.068333

--------------------------------
INTERNAL COORDINATES (ANGSTROEM)
--------------------------------
 C      0   0   0     0.000000000000     0.00000000     0.00000000
 C      1   0   0     1.398083071960     0.00000000     0.00000000
 C      2   1   0     1.404475018646   120.58302002     0.00000000
 C      3   2   1     1.410794529795   118.87929027     0.10367133
 C      4   3   2     1.398760064092   120.29609771   359.86960815
 C      1   2   3     1.396368442389   120.08827070     0.00000000
 H      1   2   3     1.082370239705   119.96822062   179.99504593
 H      6   1   2     1.082382857218   120.01242223   180.00794146
 H      2   1   3     1.083128692723   119.09644730   180.01141483
 H      4   3   2     1.081452720881   121.44029779   179.78060160
 H      5   4   3     1.082475509284   119.93744126   180.02259809
 C      3   2   1     1.511470856682   118.01990726   179.83246995
 N     12   3   2     1.459377419484   113.06628521   180.54834572
 H     13  12   3     1.046215679389   109.02630292   291.27206507
 H     13  12   3     1.044903590481   107.88082901   174.74410670
 H     12   3   2     1.112894573758   109.46481189    58.38630796
 H     12   3   2     1.116342846226   106.19814164   309.39452039
 Cu    13  12   3     2.081309687756   135.12594468    87.49887386

---------------------------
INTERNAL COORDINATES (A.U.)
---------------------------
 C      0   0   0     0.000000000000     0.00000000     0.00000000
 C      1   0   0     2.641994118475     0.00000000     0.00000000
 C      2   1   0     2.654073147174   120.58302002     0.00000000
 C      3   2   1     2.666015292547   118.87929027     0.10367133
 C      4   3   2     2.643273448201   120.29609771   359.86960815
 C      1   2   3     2.638753938165   120.08827070     0.00000000
 H      1   2   3     2.045383328550   119.96822062   179.99504593
 H      6   1   2     2.045407172194   120.01242223   180.00794146
 H      2   1   3     2.046816597039   119.09644730   180.01141483
 H      4   3   2     2.043649469248   121.44029779   179.78060160
 H      5   4   3     2.045582259224   119.93744126   180.02259809
 C      3   2   1     2.856265978533   118.01990726   179.83246995
 N     12   3   2     2.757823648854   113.06628521   180.54834572
 H     13  12   3     1.977061111060   109.02630292   291.27206507
 H     13  12   3     1.974581622360   107.88082901   174.74410670
 H     12   3   2     2.103065960330   109.46481189    58.38630796
 H     12   3   2     2.109582250929   106.19814164   309.39452039
 Cu    13  12   3     3.933105309736   135.12594468    87.49887386

---------------------
BASIS SET INFORMATION
---------------------
There are 4 groups of distinct atoms

 Group   1 Type C   : 11s6p2d1f contracted to 5s3p2d1f pattern {62111/411/11/1}
 Group   2 Type H   : 5s1p contracted to 3s1p pattern {311/1}
 Group   3 Type N   : 11s6p2d1f contracted to 5s3p2d1f pattern {62111/411/11/1}
 Group   4 Type Cu  : 17s11p7d1f contracted to 6s4p4d1f pattern {842111/6311/4111/1}

Atom   0C    basis set group =>   1
Atom   1C    basis set group =>   1
Atom   2C    basis set group =>   1
Atom   3C    basis set group =>   1
Atom   4C    basis set group =>   1
Atom   5C    basis set group =>   1
Atom   6H    basis set group =>   2
Atom   7H    basis set group =>   2
Atom   8H    basis set group =>   2
Atom   9H    basis set group =>   2
Atom  10H    basis set group =>   2
Atom  11C    basis set group =>   1
Atom  12N    basis set group =>   3
Atom  13H    basis set group =>   2
Atom  14H    basis set group =>   2
Atom  15H    basis set group =>   2
Atom  16H    basis set group =>   2
Atom  17Cu   basis set group =>   4
---------------------------------
AUXILIARY/J BASIS SET INFORMATION
---------------------------------
There are 4 groups of distinct atoms

 Group   1 Type C   : 12s5p4d2f1g contracted to 6s4p3d1f1g pattern {711111/2111/211/2/1}
 Group   2 Type H   : 5s2p1d contracted to 3s1p1d pattern {311/2/1}
 Group   3 Type N   : 12s5p4d2f1g contracted to 6s4p3d1f1g pattern {711111/2111/211/2/1}
 Group   4 Type Cu  : 19s5p5d3f3g contracted to 8s5p4d3f3g pattern {121111111/11111/2111/111/111}

Atom   0C    basis set group =>   1
Atom   1C    basis set group =>   1
Atom   2C    basis set group =>   1
Atom   3C    basis set group =>   1
Atom   4C    basis set group =>   1
Atom   5C    basis set group =>   1
Atom   6H    basis set group =>   2
Atom   7H    basis set group =>   2
Atom   8H    basis set group =>   2
Atom   9H    basis set group =>   2
Atom  10H    basis set group =>   2
Atom  11C    basis set group =>   1
Atom  12N    basis set group =>   3
Atom  13H    basis set group =>   2
Atom  14H    basis set group =>   2
Atom  15H    basis set group =>   2
Atom  16H    basis set group =>   2
Atom  17Cu   basis set group =>   4


           ************************************************************
           *        Program running with 32 parallel MPI-processes    *
           *              working on a common directory               *
           ************************************************************
------------------------------------------------------------------------------
                           ORCA GTO INTEGRAL CALCULATION
                           -- RI-GTO INTEGRALS CHOSEN --
------------------------------------------------------------------------------
------------------------------------------------------------------------------
                   ___                                                        
                  /   \      - P O W E R E D   B Y -                         
                 /     \                                                     
                 |  |  |   _    _      __       _____    __    __             
                 |  |  |  | |  | |    /  \     |  _  \  |  |  /  |          
                  \  \/   | |  | |   /    \    | | | |  |  | /  /          
                 / \  \   | |__| |  /  /\  \   | |_| |  |  |/  /          
                |  |  |   |  __  | /  /__\  \  |    /   |      \           
                |  |  |   | |  | | |   __   |  |    \   |  |\   \          
                \     /   | |  | | |  |  |  |  | |\  \  |  | \   \       
                 \___/    |_|  |_| |__|  |__|  |_| \__\ |__|  \__/        
                                                                              
                      - O R C A' S   B I G   F R I E N D -                    
                                      &                                       
                       - I N T E G R A L  F E E D E R -                       
                                                                              
 v1 FN, 2020, v2 2021                                                         
------------------------------------------------------------------------------


Reading SHARK input file orca.SHARKINP.tmp ... ok
----------------------
SHARK INTEGRAL PACKAGE
----------------------

Number of atoms                             ...     18
Number of basis functions                   ...    347
Number of shells                            ...    139
Maximum angular momentum                    ...      3
Integral batch strategy                     ... SHARK/LIBINT Hybrid
RI-J (if used) integral strategy            ... SPLIT-RIJ (Revised 2003 algorithm where possible)
Printlevel                                  ...      1
Contraction scheme used                     ... SEGMENTED contraction
Coulomb Range Separation                    ... NOT USED
Exchange Range Separation                   ... NOT USED
Finite Nucleus Model                        ... NOT USED
Auxiliary Coulomb fitting basis             ... AVAILABLE
   # of basis functions in Aux-J            ...    582
   # of shells in Aux-J                     ...    188
   Maximum angular momentum in Aux-J        ...      4
Auxiliary J/K fitting basis                 ... NOT available
Auxiliary Correlation fitting basis         ... NOT available
Auxiliary 'external' fitting basis          ... NOT available
Integral threshold                          ...     2.500000e-11
Primitive cut-off                           ...     2.500000e-12
Primitive pair pre-selection threshold      ...     2.500000e-12

Calculating pre-screening integrals         ... done (  0.2 sec) Dimension = 139
Organizing shell pair data                  ... done (  0.7 sec)
Shell pair information
Total number of shell pairs                 ...      9730
Shell pairs after pre-screening             ...      8465
Total number of primitive shell pairs       ...     31637
Primitive shell pairs kept                  ...     19681
          la=0 lb=0:   2283 shell pairs
          la=1 lb=0:   2360 shell pairs
          la=1 lb=1:    632 shell pairs
          la=2 lb=0:   1286 shell pairs
          la=2 lb=1:    667 shell pairs
          la=2 lb=2:    191 shell pairs
          la=3 lb=0:    556 shell pairs
          la=3 lb=1:    293 shell pairs
          la=3 lb=2:    158 shell pairs
          la=3 lb=3:     39 shell pairs

Calculating one electron integrals          ... done (  0.4 sec)
Calculating RI/J V-Matrix + Cholesky decomp.... done (  2.4 sec)
Calculating Nuclear repulsion               ... done (  0.0 sec) ENN=    564.978805766014 Eh

SHARK setup successfully completed in   5.8 seconds

Maximum memory used throughout the entire GTOINT-calculation: 25.3 MB


           ************************************************************
           *        Program running with 32 parallel MPI-processes    *
           *              working on a common directory               *
           ************************************************************
-------------------------------------------------------------------------------
                                 ORCA SCF
-------------------------------------------------------------------------------

------------
SCF SETTINGS
------------
Hamiltonian:
 Density Functional     Method          .... DFT(GTOs)
 Exchange Functional    Exchange        .... B88
   X-Alpha parameter    XAlpha          ....  0.666667
   Becke's b parameter  XBeta           ....  0.004200
 Correlation Functional Correlation     .... LYP
 LDA part of GGA corr.  LDAOpt          .... VWN-5
 Gradients option       PostSCFGGA      .... off
 Hybrid DFT is turned on
   Fraction HF Exchange ScalHFX         ....  0.200000
   Scaling of DF-GGA-X  ScalDFX         ....  0.720000
   Scaling of DF-GGA-C  ScalDFC         ....  0.810000
   Scaling of DF-LDA-C  ScalLDAC        ....  1.000000
   Perturbative correction              ....  0.000000
   Density functional embedding theory  .... OFF
   NL short-range parameter             ....  4.800000
 RI-approximation to the Coulomb term is turned on
   Number of AuxJ basis functions       .... 582
   RIJ-COSX (HFX calculated with COS-X)).... on


General Settings:
 Integral files         IntName         .... orca
 Hartree-Fock type      HFTyp           .... RHF
 Total Charge           Charge          ....    1
 Multiplicity           Mult            ....    1
 Number of Electrons    NEL             ....   86
 Basis Dimension        Dim             ....  347
 Nuclear Repulsion      ENuc            ....    564.9788057660 Eh

Convergence Acceleration:
 DIIS                   CNVDIIS         .... on
   Start iteration      DIISMaxIt       ....    12
   Startup error        DIISStart       ....  0.200000
   # of expansion vecs  DIISMaxEq       ....     5
   Bias factor          DIISBfac        ....   1.050
   Max. coefficient     DIISMaxC        ....  10.000
 Trust-Rad. Augm. Hess. CNVTRAH         .... auto
   Auto Start mean grad. ratio tolernc. ....  1.125000
   Auto Start start iteration           ....    20
   Auto Start num. interpolation iter.  ....    10
   Max. Number of Micro iterations      ....    16
   Max. Number of Macro iterations      .... Maxiter - #DIIS iter
   Number of Davidson start vectors     ....     2
   Converg. threshold I  (grad. norm)   ....   1.000e-05
   Converg. threshold II (energy diff.) ....   1.000e-08
   Grad. Scal. Fac. for Micro threshold ....   0.100
   Minimum threshold for Micro iter.    ....   0.010
   NR start threshold (gradient norm)   ....   0.001
   Initial trust radius                 ....   0.400
   Minimum AH scaling param. (alpha)    ....   1.000
   Maximum AH scaling param. (alpha)    .... 1000.000
   Orbital update algorithm             .... Taylor
   White noise on init. David. guess    .... on
   Maximum white noise                  ....   0.010
   Quad. conv. algorithm                .... NR
 SOSCF                  CNVSOSCF        .... off
 Level Shifting         CNVShift        .... on
   Level shift para.    LevelShift      ....    0.2500
   Turn off err/grad.   ShiftErr        ....    0.0010
 Zerner damping         CNVZerner       .... off
 Static damping         CNVDamp         .... on
   Fraction old density DampFac         ....    0.7000
   Max. Damping (<1)    DampMax         ....    0.9800
   Min. Damping (>=0)   DampMin         ....    0.0000
   Turn off err/grad.   DampErr         ....    0.1000
 Fernandez-Rico         CNVRico         .... off

SCF Procedure:
 Maximum # iterations   MaxIter         ....  2000
 SCF integral mode      SCFMode         .... Direct
   Integral package                     .... SHARK and LIBINT hybrid scheme
 Reset frequency        DirectResetFreq ....    15
 Integral Threshold     Thresh          ....  2.500e-11 Eh
 Primitive CutOff       TCut            ....  2.500e-12 Eh

Convergence Tolerance:
 Convergence Check Mode ConvCheckMode   .... Total+1el-Energy
 Convergence forced     ConvForced      .... 0
 Energy Change          TolE            ....  1.000e-08 Eh
 1-El. energy change                    ....  1.000e-05 Eh
 DIIS Error             TolErr          ....  5.000e-07


Diagonalization of the overlap matrix:
Smallest eigenvalue                        ... 9.004e-06
Time for diagonalization                   ...    0.100 sec
Threshold for overlap eigenvalues          ... 1.000e-08
Number of eigenvalues below threshold      ... 0
Time for construction of square roots      ...    0.622 sec
Total time needed                          ...    1.258 sec

Time for model grid setup =    1.726 sec

------------------------------
INITIAL GUESS: MODEL POTENTIAL
------------------------------
Loading Hartree-Fock densities                     ... done
Calculating cut-offs                               ... done
Initializing the effective Hamiltonian             ... done
Setting up the integral package (SHARK)            ... done
Starting the Coulomb interaction                   ... done (   2.6 sec)
Reading the grid                                   ... done
Mapping shells                                     ... done
Starting the XC term evaluation                    ... done (   0.4 sec)
  promolecular density results
     # of electrons  =     86.987193305
     EX              =   -111.017256246
     EC              =     -3.297854787
     EX+EC           =   -114.315111033
Transforming the Hamiltonian                       ... done (   1.7 sec)
Diagonalizing the Hamiltonian                      ... done (   1.3 sec)
Back transforming the eigenvectors                 ... done (   0.1 sec)
Now organizing SCF variables                       ... done
                      ------------------
                      INITIAL GUESS DONE (   8.8 sec)
                      ------------------
-------------------
DFT GRID GENERATION
-------------------

General Integration Accuracy     IntAcc      ... 4.388
Radial Grid Type                 RadialGrid  ... OptM3 with GC (2021)
Angular Grid (max. ang.)         AngularGrid ... 4 (Lebedev-302)
Angular grid pruning method      GridPruning ... 4 (adaptive)
Weight generation scheme         WeightScheme... Becke
Basis function cutoff            BFCut       ... 1.0000e-11
Integration weight cutoff        WCut        ... 1.0000e-14
Angular grids for H and He will be reduced by one unit
Partially contracted basis set               ... off
Rotationally invariant grid construction     ... off

Total number of grid points                  ...    88183
Total number of batches                      ...     1384
Average number of points per batch           ...       63
Average number of grid points per atom       ...     4899
Time for grid setup =    4.102 sec

--------------------
COSX GRID GENERATION
--------------------

GRIDX 1
-------
General Integration Accuracy     IntAcc      ... 3.816
Radial Grid Type                 RadialGrid  ... OptM3 with GC (2021)
Angular Grid (max. ang.)         AngularGrid ... 1 (Lebedev-50)
Angular grid pruning method      GridPruning ... 4 (adaptive)
Weight generation scheme         WeightScheme... Becke
Basis function cutoff            BFCut       ... 1.0000e-11
Integration weight cutoff        WCut        ... 1.0000e-14
Angular grids for H and He will be reduced by one unit
Partially contracted basis set               ... on
Rotationally invariant grid construction     ... off

Total number of grid points                  ...    11044
Total number of batches                      ...      180
Average number of points per batch           ...       61
Average number of grid points per atom       ...      614
UseSFitting                                  ... on

GRIDX 2
-------
General Integration Accuracy     IntAcc      ... 4.020
Radial Grid Type                 RadialGrid  ... OptM3 with GC (2021)
Angular Grid (max. ang.)         AngularGrid ... 2 (Lebedev-110)
Angular grid pruning method      GridPruning ... 4 (adaptive)
Weight generation scheme         WeightScheme... Becke
Basis function cutoff            BFCut       ... 1.0000e-11
Integration weight cutoff        WCut        ... 1.0000e-14
Angular grids for H and He will be reduced by one unit
Partially contracted basis set               ... on
Rotationally invariant grid construction     ... off

Total number of grid points                  ...    23789
Total number of batches                      ...      383
Average number of points per batch           ...       62
Average number of grid points per atom       ...     1322
UseSFitting                                  ... on

GRIDX 3
-------
General Integration Accuracy     IntAcc      ... 4.338
Radial Grid Type                 RadialGrid  ... OptM3 with GC (2021)
Angular Grid (max. ang.)         AngularGrid ... 3 (Lebedev-194)
Angular grid pruning method      GridPruning ... 4 (adaptive)
Weight generation scheme         WeightScheme... Becke
Basis function cutoff            BFCut       ... 1.0000e-11
Integration weight cutoff        WCut        ... 1.0000e-14
Angular grids for H and He will be reduced by one unit
Partially contracted basis set               ... on
Rotationally invariant grid construction     ... off

Total number of grid points                  ...    52400
Total number of batches                      ...      828
Average number of points per batch           ...       63
Average number of grid points per atom       ...     2911
UseSFitting                                  ... on

Time for X-Grid setup             =    8.661 sec


--------------------
CPCM SOLVATION MODEL
--------------------
CPCM parameters:
  Epsilon                                         ...       6.0200
  Refrac                                          ...       1.3723
  Rsolv                                           ...       1.3000
  Surface type                                    ... GAUSSIAN VDW
  Epsilon function type                           ...         CPCM
Radii:
 Radius for C  used is    3.8550 Bohr (=   2.0400 Ang.)
 Radius for H  used is    2.4944 Bohr (=   1.3200 Ang.)
 Radius for N  used is    3.5149 Bohr (=   1.8600 Ang.)
 Radius for Cu used is    3.1747 Bohr (=   1.6800 Ang.)
Calculating surface                               ...        done! (  0.0s)
GEPOL surface points                              ...         1039
GEPOL Volume                                      ...    1084.5982
GEPOL Surface-area                                ...     630.3807
Calculating surface distance matrix               ...        done! (  0.0s)
Performing Cholesky decomposition & store         ...        done! (  5.3s)
Overall time for CPCM initialization              ...                 5.3s
--------------
SCF ITERATIONS
--------------
ITER       Energy         Delta-E        Max-DP      RMS-DP      [F,P]     Damp
               ***  Starting incremental Fock matrix formation  ***
  0  -1966.9072795448   0.000000000000 0.03943448  0.00088027  0.2143438 0.7000
  1  -1967.0115472972  -0.104267752345 0.02546779  0.00060387  0.0939805 0.7000
                               ***Turning on DIIS***
  2  -1967.0541555040  -0.042608206829 0.04295205  0.00101084  0.0301717 0.0000
  3  -1967.1189764343  -0.064820930270 0.02236259  0.00040946  0.0568580 0.0000
  4  -1967.1349950041  -0.016018569807 0.00500051  0.00014431  0.0075952 0.0000
  5  -1967.1357836024  -0.000788598332 0.00383108  0.00006460  0.0061708 0.0000
  6  -1967.1358561608  -0.000072558350 0.00136901  0.00003348  0.0019420 0.0000
  7  -1967.1358624065  -0.000006245751 0.00055436  0.00001414  0.0021781 0.0000
  8  -1967.1358677628  -0.000005356290 0.00068171  0.00001040  0.0003924 0.0000
               *** Restarting incremental Fock matrix formation ***
                                   *** Resetting DIIS ***
  9  -1967.1358972069  -0.000029444084 0.00029116  0.00000807  0.0000694 0.0000
 10  -1967.1358972152  -0.000000008338 0.00004686  0.00000118  0.0000976 0.0000
 11  -1967.1358972746  -0.000000059396 0.00003664  0.00000051  0.0000952 0.0000
 12  -1967.1358972731   0.000000001494 0.00002272  0.00000040  0.0000754 0.0000
 13  -1967.1358972796  -0.000000006481 0.00004012  0.00000091  0.0000149 0.0000
 14  -1967.1358972898  -0.000000010147 0.00004440  0.00000088  0.0000024 0.0000
                 **** Energy Check signals convergence ****

               *****************************************************
               *                     SUCCESS                       *
               *           SCF CONVERGED AFTER  15 CYCLES          *
               *****************************************************

Old exchange energy                            =    -22.305017328 Eh
New exchange energy                            =    -22.305000923 Eh
Exchange energy change after final integration =      0.000016405 Eh
Total energy after final integration           =  -1967.135880878 Eh
Final COS-X integration done in                =     2.846 sec

----------------
TOTAL SCF ENERGY
----------------

Total Energy       :        -1967.13588088 Eh          -53528.48865 eV

Components:
Nuclear Repulsion  :          564.97880577 Eh           15373.85490 eV
Electronic Energy  :        -2532.11468664 Eh          -68902.34355 eV
One Electron Energy:        -3835.82995928 Eh         -104378.23968 eV
Two Electron Energy:         1303.71527263 Eh           35475.89613 eV
Max COSX asymmetry :            0.00000084 Eh               0.00002 eV
CPCM Dielectric    :           -0.10836697 Eh              -2.94882 eV

Virial components:
Potential Energy   :        -3929.98722482 Eh         -106940.38913 eV
Kinetic Energy     :         1962.85134395 Eh           53411.90048 eV
Virial Ratio       :            2.00218281


DFT components:
N(Alpha)           :       42.999981797047 electrons
N(Beta)            :       42.999981797047 electrons
N(Total)           :       85.999963594094 electrons
E(X)               :      -88.866581692889 Eh       
E(C)               :       -3.851193048280 Eh       
E(XC)              :      -92.717774741169 Eh       
DFET-embed. en.    :        0.000000000000 Eh       
CPCM Solvation Model Properties:
Surface-charge          :           -1.03046015
Charge-correction       :            0.00391048 Eh               0.10641 eV
Free-energy (cav+disp)  :  This term is not implemented in the current solvation scheme

---------------
SCF CONVERGENCE
---------------

  Last Energy change         ...    7.2637e-09  Tolerance :   1.0000e-08
  Last MAX-Density change    ...    0.0000e+00  Tolerance :   1.0000e-07
  Last RMS-Density change    ...    0.0000e+00  Tolerance :   5.0000e-09
  Last DIIS Error            ...    1.4312e-06  Tolerance :   5.0000e-07

             **** THE GBW FILE WAS UPDATED (orca.gbw) ****
             **** DENSITY orca.scfp WAS UPDATED ****
             **** ENERGY FILE WAS UPDATED (orca.en.tmp) ****
             **** THE GBW FILE WAS UPDATED (orca.gbw) ****
             **** DENSITY orca.scfp WAS UPDATED ****
----------------
ORBITAL ENERGIES
----------------

  NO   OCC          E(Eh)            E(eV) 
   0   2.0000    -323.033737     -8790.1949 
   1   2.0000     -38.820169     -1056.3505 
   2   2.0000     -34.025276      -925.8748 
   3   2.0000     -34.025229      -925.8736 
   4   2.0000     -34.024912      -925.8649 
   5   2.0000     -14.390228      -391.5780 
   6   2.0000     -10.240986      -278.6714 
   7   2.0000     -10.208203      -277.7793 
   8   2.0000     -10.193719      -277.3852 
   9   2.0000     -10.191742      -277.3314 
  10   2.0000     -10.191269      -277.3185 
  11   2.0000     -10.190884      -277.3080 
  12   2.0000     -10.187795      -277.2240 
  13   2.0000      -4.314655      -117.4077 
  14   2.0000      -2.810846       -76.4870 
  15   2.0000      -2.808999       -76.4367 
  16   2.0000      -2.808714       -76.4290 
  17   2.0000      -0.952144       -25.9091 
  18   2.0000      -0.871450       -23.7134 
  19   2.0000      -0.783456       -21.3189 
  20   2.0000      -0.762711       -20.7544 
  21   2.0000      -0.697278       -18.9739 
  22   2.0000      -0.625062       -17.0088 
  23   2.0000      -0.603131       -16.4120 
  24   2.0000      -0.559093       -15.2137 
  25   2.0000      -0.528348       -14.3771 
  26   2.0000      -0.509350       -13.8601 
  27   2.0000      -0.476336       -12.9618 
  28   2.0000      -0.463408       -12.6100 
  29   2.0000      -0.451086       -12.2747 
  30   2.0000      -0.437045       -11.8926 
  31   2.0000      -0.421638       -11.4734 
  32   2.0000      -0.383887       -10.4461 
  33   2.0000      -0.365740        -9.9523 
  34   2.0000      -0.362352        -9.8601 
  35   2.0000      -0.353156        -9.6099 
  36   2.0000      -0.304636        -8.2896 
  37   2.0000      -0.303576        -8.2607 
  38   2.0000      -0.302927        -8.2431 
  39   2.0000      -0.301779        -8.2118 
  40   2.0000      -0.283607        -7.7173 
  41   2.0000      -0.274463        -7.4685 
  42   2.0000      -0.264566        -7.1992 
  43   0.0000      -0.109907        -2.9907 
  44   0.0000      -0.035573        -0.9680 
  45   0.0000      -0.030104        -0.8192 
  46   0.0000       0.005920         0.1611 
  47   0.0000       0.027574         0.7503 
  48   0.0000       0.035403         0.9634 
  49   0.0000       0.046357         1.2614 
  50   0.0000       0.062881         1.7111 
  51   0.0000       0.071854         1.9552 
  52   0.0000       0.079666         2.1678 
  53   0.0000       0.092994         2.5305 
  54   0.0000       0.094095         2.5605 
  55   0.0000       0.096538         2.6269 
  56   0.0000       0.111290         3.0284 
  57   0.0000       0.127424         3.4674 
  58   0.0000       0.131196         3.5700 
  59   0.0000       0.137608         3.7445 
  60   0.0000       0.145460         3.9582 
  61   0.0000       0.155331         4.2268 
  62   0.0000       0.170780         4.6471 
  63   0.0000       0.179240         4.8774 
  64   0.0000       0.183787         5.0011 
  65   0.0000       0.195383         5.3166 
  66   0.0000       0.204741         5.5713 
  67   0.0000       0.210069         5.7163 
  68   0.0000       0.211524         5.7559 
  69   0.0000       0.218177         5.9369 
  70   0.0000       0.232712         6.3324 
  71   0.0000       0.240421         6.5422 
  72   0.0000       0.245130         6.6703 
  73   0.0000       0.252206         6.8629 
  74   0.0000       0.264943         7.2095 
  75   0.0000       0.268833         7.3153 
  76   0.0000       0.299565         8.1516 
  77   0.0000       0.305550         8.3144 
  78   0.0000       0.314671         8.5626 
  79   0.0000       0.325646         8.8613 
  80   0.0000       0.329961         8.9787 
  81   0.0000       0.337612         9.1869 
  82   0.0000       0.340240         9.2584 
  83   0.0000       0.345673         9.4062 
  84   0.0000       0.356093         9.6898 
  85   0.0000       0.372812        10.1447 
  86   0.0000       0.386023        10.5042 
  87   0.0000       0.396148        10.7797 
  88   0.0000       0.400565        10.8999 
  89   0.0000       0.410748        11.1770 
  90   0.0000       0.417830        11.3697 
  91   0.0000       0.422950        11.5090 
  92   0.0000       0.432088        11.7577 
  93   0.0000       0.446600        12.1526 
  94   0.0000       0.453456        12.3392 
  95   0.0000       0.460819        12.5395 
  96   0.0000       0.471498        12.8301 
  97   0.0000       0.482301        13.1241 
  98   0.0000       0.485726        13.2173 
  99   0.0000       0.487653        13.2697 
 100   0.0000       0.500702        13.6248 
 101   0.0000       0.527390        14.3510 
 102   0.0000       0.532041        14.4776 
 103   0.0000       0.548081        14.9141 
 104   0.0000       0.606035        16.4910 
 105   0.0000       0.612502        16.6670 
 106   0.0000       0.631850        17.1935 
 107   0.0000       0.635144        17.2831 
 108   0.0000       0.646582        17.5944 
 109   0.0000       0.657185        17.8829 
 110   0.0000       0.684962        18.6388 
 111   0.0000       0.697327        18.9752 
 112   0.0000       0.702846        19.1254 
 113   0.0000       0.722458        19.6591 
 114   0.0000       0.738415        20.0933 
 115   0.0000       0.752705        20.4822 
 116   0.0000       0.758028        20.6270 
 117   0.0000       0.797308        21.6958 
 118   0.0000       0.798823        21.7371 
 119   0.0000       0.809224        22.0201 
 120   0.0000       0.838341        22.8124 
 121   0.0000       0.857786        23.3415 
 122   0.0000       0.863306        23.4918 
 123   0.0000       0.868908        23.6442 
 124   0.0000       0.886332        24.1183 
 125   0.0000       0.894087        24.3293 
 126   0.0000       0.897522        24.4228 
 127   0.0000       0.919170        25.0119 
 128   0.0000       0.929373        25.2895 
 129   0.0000       0.959662        26.1137 
 130   0.0000       0.964946        26.2575 
 131   0.0000       0.979121        26.6432 
 132   0.0000       1.002058        27.2674 
 133   0.0000       1.020446        27.7677 
 134   0.0000       1.062105        28.9014 
 135   0.0000       1.070879        29.1401 
 136   0.0000       1.084852        29.5203 
 137   0.0000       1.105174        30.0733 
 138   0.0000       1.134911        30.8825 
 139   0.0000       1.182373        32.1740 
 140   0.0000       1.191134        32.4124 
 141   0.0000       1.193811        32.4852 
 142   0.0000       1.210258        32.9328 
 143   0.0000       1.217507        33.1300 
 144   0.0000       1.233459        33.5641 
 145   0.0000       1.242420        33.8080 
 146   0.0000       1.261935        34.3390 
 147   0.0000       1.280883        34.8546 
 148   0.0000       1.284547        34.9543 
 149   0.0000       1.315316        35.7916 
 150   0.0000       1.350177        36.7402 
 151   0.0000       1.376659        37.4608 
 152   0.0000       1.393922        37.9306 
 153   0.0000       1.407862        38.3099 
 154   0.0000       1.440366        39.1944 
 155   0.0000       1.445667        39.3386 
 156   0.0000       1.449688        39.4480 
 157   0.0000       1.464702        39.8566 
 158   0.0000       1.484747        40.4020 
 159   0.0000       1.491941        40.5978 
 160   0.0000       1.520381        41.3717 
 161   0.0000       1.543531        42.0016 
 162   0.0000       1.549451        42.1627 
 163   0.0000       1.557824        42.3906 
 164   0.0000       1.584123        43.1062 
 165   0.0000       1.599765        43.5318 
 166   0.0000       1.634929        44.4887 
 167   0.0000       1.644596        44.7517 
 168   0.0000       1.666437        45.3461 
 169   0.0000       1.672796        45.5191 
 170   0.0000       1.681504        45.7560 
 171   0.0000       1.694033        46.0970 
 172   0.0000       1.714149        46.6444 
 173   0.0000       1.725259        46.9467 
 174   0.0000       1.768476        48.1227 
 175   0.0000       1.813326        49.3431 
 176   0.0000       1.824188        49.6387 
 177   0.0000       1.858162        50.5632 
 178   0.0000       1.880284        51.1651 
 179   0.0000       1.895708        51.5848 
 180   0.0000       1.905582        51.8535 
 181   0.0000       1.945365        52.9361 
 182   0.0000       1.955985        53.2250 
 183   0.0000       1.972418        53.6722 
 184   0.0000       1.998088        54.3707 
 185   0.0000       2.018680        54.9311 
 186   0.0000       2.036267        55.4096 
 187   0.0000       2.051906        55.8352 
 188   0.0000       2.069469        56.3131 
 189   0.0000       2.096959        57.0612 
 190   0.0000       2.110100        57.4187 
 191   0.0000       2.127843        57.9015 
 192   0.0000       2.132883        58.0387 
 193   0.0000       2.150599        58.5208 
 194   0.0000       2.179142        59.2975 
 195   0.0000       2.183689        59.4212 
 196   0.0000       2.212838        60.2144 
 197   0.0000       2.219912        60.4069 
 198   0.0000       2.229817        60.6764 
 199   0.0000       2.257801        61.4379 
 200   0.0000       2.320296        63.1385 
 201   0.0000       2.363343        64.3098 
 202   0.0000       2.376753        64.6747 
 203   0.0000       2.391734        65.0824 
 204   0.0000       2.450217        66.6738 
 205   0.0000       2.470095        67.2147 
 206   0.0000       2.481150        67.5155 
 207   0.0000       2.503059        68.1117 
 208   0.0000       2.510060        68.3022 
 209   0.0000       2.533988        68.9533 
 210   0.0000       2.542606        69.1878 
 211   0.0000       2.564680        69.7885 
 212   0.0000       2.588038        70.4241 
 213   0.0000       2.596984        70.6675 
 214   0.0000       2.612175        71.0809 
 215   0.0000       2.622205        71.3538 
 216   0.0000       2.641105        71.8681 
 217   0.0000       2.650244        72.1168 
 218   0.0000       2.656148        72.2775 
 219   0.0000       2.662964        72.4629 
 220   0.0000       2.689946        73.1971 
 221   0.0000       2.703940        73.5780 
 222   0.0000       2.730607        74.3036 
 223   0.0000       2.741603        74.6028 
 224   0.0000       2.753630        74.9301 
 225   0.0000       2.767823        75.3163 
 226   0.0000       2.777038        75.5671 
 227   0.0000       2.799786        76.1860 
 228   0.0000       2.823847        76.8408 
 229   0.0000       2.832026        77.0633 
 230   0.0000       2.838389        77.2365 
 231   0.0000       2.848682        77.5166 
 232   0.0000       2.861939        77.8773 
 233   0.0000       2.875822        78.2551 
 234   0.0000       2.918363        79.4127 
 235   0.0000       2.938391        79.9577 
 236   0.0000       2.969160        80.7950 
 237   0.0000       2.995244        81.5047 
 238   0.0000       3.000994        81.6612 
 239   0.0000       3.025183        82.3194 
 240   0.0000       3.034720        82.5789 
 241   0.0000       3.076873        83.7260 
 242   0.0000       3.095835        84.2419 
 243   0.0000       3.105022        84.4919 
 244   0.0000       3.115427        84.7751 
 245   0.0000       3.130566        85.1870 
 246   0.0000       3.135701        85.3268 
 247   0.0000       3.148368        85.6715 
 248   0.0000       3.157378        85.9166 
 249   0.0000       3.178826        86.5003 
 250   0.0000       3.184348        86.6505 
 251   0.0000       3.201585        87.1196 
 252   0.0000       3.217769        87.5599 
 253   0.0000       3.253723        88.5383 
 254   0.0000       3.269096        88.9566 
 255   0.0000       3.271660        89.0264 
 256   0.0000       3.290434        89.5373 
 257   0.0000       3.308789        90.0367 
 258   0.0000       3.314303        90.1868 
 259   0.0000       3.326239        90.5116 
 260   0.0000       3.353816        91.2620 
 261   0.0000       3.355722        91.3138 
 262   0.0000       3.368816        91.6701 
 263   0.0000       3.380352        91.9840 
 264   0.0000       3.437921        93.5506 
 265   0.0000       3.463228        94.2392 
 266   0.0000       3.466326        94.3235 
 267   0.0000       3.482263        94.7572 
 268   0.0000       3.501762        95.2878 
 269   0.0000       3.519606        95.7734 
 270   0.0000       3.561693        96.9186 
 271   0.0000       3.567482        97.0761 
 272   0.0000       3.579726        97.4093 
 273   0.0000       3.634526        98.9005 
 274   0.0000       3.648609        99.2837 
 275   0.0000       3.661954        99.6468 
 276   0.0000       3.666969        99.7833 
 277   0.0000       3.679569       100.1262 
 278   0.0000       3.703992       100.7908 
 279   0.0000       3.712201       101.0141 
 280   0.0000       3.726228       101.3958 
 281   0.0000       3.769115       102.5628 
 282   0.0000       3.809218       103.6541 
 283   0.0000       3.821190       103.9799 
 284   0.0000       3.843470       104.5861 
 285   0.0000       3.872722       105.3821 
 286   0.0000       3.902045       106.1801 
 287   0.0000       3.928009       106.8866 
 288   0.0000       3.956170       107.6529 
 289   0.0000       4.002817       108.9222 
 290   0.0000       4.027845       109.6032 
 291   0.0000       4.038226       109.8857 
 292   0.0000       4.045578       110.0858 
 293   0.0000       4.114163       111.9521 
 294   0.0000       4.151025       112.9551 
 295   0.0000       4.164069       113.3101 
 296   0.0000       4.182209       113.8037 
 297   0.0000       4.185410       113.8908 
 298   0.0000       4.204341       114.4059 
 299   0.0000       4.215323       114.7048 
 300   0.0000       4.230321       115.1129 
 301   0.0000       4.265402       116.0675 
 302   0.0000       4.281401       116.5029 
 303   0.0000       4.295249       116.8797 
 304   0.0000       4.381536       119.2277 
 305   0.0000       4.421032       120.3024 
 306   0.0000       4.453985       121.1991 
 307   0.0000       4.542650       123.6118 
 308   0.0000       4.584964       124.7632 
 309   0.0000       4.643563       126.3578 
 310   0.0000       4.659804       126.7997 
 311   0.0000       4.678286       127.3026 
 312   0.0000       4.697832       127.8345 
 313   0.0000       4.772655       129.8705 
 314   0.0000       4.803811       130.7183 
 315   0.0000       4.830949       131.4568 
 316   0.0000       4.851670       132.0206 
 317   0.0000       4.897282       133.2618 
 318   0.0000       4.928327       134.1066 
 319   0.0000       5.002712       136.1307 
 320   0.0000       5.018138       136.5505 
 321   0.0000       5.075198       138.1032 
 322   0.0000       5.153762       140.2410 
 323   0.0000       5.183209       141.0423 
 324   0.0000       5.256891       143.0473 
 325   0.0000       5.267642       143.3398 
 326   0.0000       5.343307       145.3988 
 327   0.0000       5.362955       145.9334 
 328   0.0000       5.440351       148.0395 
 329   0.0000       5.500297       149.6707 
 330   0.0000       5.592811       152.1881 
 331   0.0000       5.738447       156.1511 
 332   0.0000       5.749708       156.4575 
 333   0.0000       5.751230       156.4989 
 334   0.0000       5.751404       156.5037 
 335   0.0000       5.760055       156.7391 
 336   0.0000       5.768748       156.9756 
 337   0.0000       5.810212       158.1039 
 338   0.0000       5.869706       159.7228 
 339   0.0000      21.964732       597.6907 
 340   0.0000      22.434621       610.4771 
 341   0.0000      22.552044       613.6723 
 342   0.0000      22.559746       613.8819 
 343   0.0000      22.654914       616.4715 
 344   0.0000      22.737936       618.7307 
 345   0.0000      23.136474       629.5755 
 346   0.0000      31.921042       868.6157 

                    ********************************
                    * MULLIKEN POPULATION ANALYSIS *
                    ********************************

-----------------------
MULLIKEN ATOMIC CHARGES
-----------------------
   0 C :   -0.123399
   1 C :   -0.228592
   2 C :    0.134679
   3 C :   -0.213470
   4 C :   -0.136826
   5 C :   -0.145789
   6 H :    0.141422
   7 H :    0.140882
   8 H :    0.136025
   9 H :    0.131095
  10 H :    0.139571
  11 C :   -0.075556
  12 N :   -0.472086
  13 H :    0.294612
  14 H :    0.286103
  15 H :    0.142833
  16 H :    0.149454
  17 Cu:    0.699040
Sum of atomic charges:    1.0000000

--------------------------------
MULLIKEN REDUCED ORBITAL CHARGES
--------------------------------
  0 C s       :     3.215718  s :     3.215718
      pz      :     0.949141  p :     2.819748
      px      :     0.943558
      py      :     0.927048
      dz2     :     0.013540  d :     0.080681
      dxz     :     0.022288
      dyz     :     0.010938
      dx2y2   :     0.020287
      dxy     :     0.013628
      f0      :     0.001175  f :     0.007252
      f+1     :     0.000649
      f-1     :     0.000848
      f+2     :     0.001005
      f-2     :     0.001530
      f+3     :     0.001447
      f-3     :     0.000598
  1 C s       :     3.272826  s :     3.272826
      pz      :     0.968364  p :     2.870660
      px      :     0.921090
      py      :     0.981206
      dz2     :     0.011280  d :     0.077836
      dxz     :     0.017794
      dyz     :     0.014900
      dx2y2   :     0.019346
      dxy     :     0.014515
      f0      :     0.000815  f :     0.007271
      f+1     :     0.001074
      f-1     :     0.000730
      f+2     :     0.000916
      f-2     :     0.001537
      f+3     :     0.001371
      f-3     :     0.000828
  2 C s       :     3.177691  s :     3.177691
      pz      :     0.856527  p :     2.557611
      px      :     0.844163
      py      :     0.856920
      dz2     :     0.027724  d :     0.120290
      dxz     :     0.028022
      dyz     :     0.015074
      dx2y2   :     0.025865
      dxy     :     0.023604
      f0      :     0.001431  f :     0.009729
      f+1     :     0.001475
      f-1     :     0.001002
      f+2     :     0.001150
      f-2     :     0.002048
      f+3     :     0.001322
      f-3     :     0.001302
  3 C s       :     3.252262  s :     3.252262
      pz      :     0.953173  p :     2.873608
      px      :     0.977307
      py      :     0.943129
      dz2     :     0.012857  d :     0.080345
      dxz     :     0.023238
      dyz     :     0.010734
      dx2y2   :     0.020854
      dxy     :     0.012662
      f0      :     0.001104  f :     0.007255
      f+1     :     0.000677
      f-1     :     0.000885
      f+2     :     0.001022
      f-2     :     0.001533
      f+3     :     0.001402
      f-3     :     0.000631
  4 C s       :     3.224800  s :     3.224800
      pz      :     0.961862  p :     2.823511
      px      :     0.904586
      py      :     0.957062
      dz2     :     0.012707  d :     0.081230
      dxz     :     0.017665
      dyz     :     0.014322
      dx2y2   :     0.020511
      dxy     :     0.016025
      f0      :     0.000874  f :     0.007285
      f+1     :     0.001036
      f-1     :     0.000730
      f+2     :     0.000905
      f-2     :     0.001558
      f+3     :     0.001408
      f-3     :     0.000776
  5 C s       :     3.222446  s :     3.222446
      pz      :     0.915726  p :     2.837120
      px      :     0.964055
      py      :     0.957339
      dz2     :     0.023860  d :     0.079043
      dxz     :     0.014939
      dyz     :     0.013022
      dx2y2   :     0.010249
      dxy     :     0.016973
      f0      :     0.001006  f :     0.007180
      f+1     :     0.001222
      f-1     :     0.000869
      f+2     :     0.000976
      f-2     :     0.001626
      f+3     :     0.000522
      f-3     :     0.000961
  6 H s       :     0.836312  s :     0.836312
      pz      :     0.008465  p :     0.022266
      px      :     0.009556
      py      :     0.004244
  7 H s       :     0.836819  s :     0.836819
      pz      :     0.004035  p :     0.022298
      px      :     0.010973
      py      :     0.007290
  8 H s       :     0.841693  s :     0.841693
      pz      :     0.009868  p :     0.022281
      px      :     0.003822
      py      :     0.008591
  9 H s       :     0.846186  s :     0.846186
      pz      :     0.008726  p :     0.022719
      px      :     0.009461
      py      :     0.004531
 10 H s       :     0.838169  s :     0.838169
      pz      :     0.009718  p :     0.022261
      px      :     0.003831
      py      :     0.008711
 11 C s       :     3.218145  s :     3.218145
      pz      :     0.921555  p :     2.739645
      px      :     0.836304
      py      :     0.981786
      dz2     :     0.026549  d :     0.109151
      dxz     :     0.020815
      dyz     :     0.012116
      dx2y2   :     0.027828
      dxy     :     0.021843
      f0      :     0.001266  f :     0.008614
      f+1     :     0.001898
      f-1     :     0.000399
      f+2     :     0.000955
      f-2     :     0.001666
      f+3     :     0.001287
      f-3     :     0.001144
 12 N s       :     3.548765  s :     3.548765
      pz      :     1.169741  p :     3.873414
      px      :     1.143944
      py      :     1.559729
      dz2     :     0.013016  d :     0.047433
      dxz     :     0.006927
      dyz     :     0.007980
      dx2y2   :     0.006366
      dxy     :     0.013144
      f0      :     0.000323  f :     0.002473
      f+1     :     0.000571
      f-1     :     0.000232
      f+2     :     0.000337
      f-2     :     0.000324
      f+3     :     0.000213
      f-3     :     0.000472
 13 H s       :     0.670817  s :     0.670817
      pz      :     0.016612  p :     0.034571
      px      :     0.007230
      py      :     0.010730
 14 H s       :     0.680353  s :     0.680353
      pz      :     0.006317  p :     0.033544
      px      :     0.015180
      py      :     0.012047
 15 H s       :     0.836221  s :     0.836221
      pz      :     0.003829  p :     0.020946
      px      :     0.004298
      py      :     0.012819
 16 H s       :     0.829534  s :     0.829534
      pz      :     0.012804  p :     0.021011
      px      :     0.003783
      py      :     0.004424
 17 Cus       :     6.270134  s :     6.270134
      pz      :     4.004747  p :    12.095629
      px      :     4.055359
      py      :     4.035524
      dz2     :     1.988115  d :     9.935144
      dxz     :     1.996462
      dyz     :     1.997792
      dx2y2   :     1.990856
      dxy     :     1.961919
      f0      :     0.000003  f :     0.000053
      f+1     :     0.000008
      f-1     :     0.000005
      f+2     :     0.000002
      f-2     :     0.000005
      f+3     :     0.000011
      f-3     :     0.000018


                     *******************************
                     * LOEWDIN POPULATION ANALYSIS *
                     *******************************

----------------------
LOEWDIN ATOMIC CHARGES
----------------------
   0 C :   -0.137429
   1 C :   -0.112616
   2 C :   -0.148809
   3 C :   -0.122979
   4 C :   -0.140773
   5 C :   -0.144578
   6 H :    0.149168
   7 H :    0.148078
   8 H :    0.152041
   9 H :    0.148969
  10 H :    0.148330
  11 C :   -0.252276
  12 N :   -0.025106
  13 H :    0.215270
  14 H :    0.212316
  15 H :    0.148505
  16 H :    0.158490
  17 Cu:    0.603400

-------------------------------
LOEWDIN REDUCED ORBITAL CHARGES
-------------------------------
  0 C s       :     2.770333  s :     2.770333
      pz      :     0.974793  p :     2.942735
      px      :     0.995048
      py      :     0.972894
      dz2     :     0.058979  d :     0.381977
      dxz     :     0.109411
      dyz     :     0.057060
      dx2y2   :     0.085207
      dxy     :     0.071320
      f0      :     0.007026  f :     0.042385
      f+1     :     0.004279
      f-1     :     0.005622
      f+2     :     0.004769
      f-2     :     0.007947
      f+3     :     0.007808
      f-3     :     0.004934
  1 C s       :     2.762684  s :     2.762684
      pz      :     0.962316  p :     2.934386
      px      :     1.022522
      py      :     0.949547
      dz2     :     0.056949  d :     0.373924
      dxz     :     0.084158
      dyz     :     0.069492
      dx2y2   :     0.088925
      dxy     :     0.074399
      f0      :     0.005390  f :     0.041623
      f+1     :     0.007077
      f-1     :     0.003355
      f+2     :     0.004865
      f-2     :     0.007758
      f+3     :     0.007303
      f-3     :     0.005874
  2 C s       :     2.719850  s :     2.719850
      pz      :     0.980007  p :     2.867837
      px      :     0.962417
      py      :     0.925413
      dz2     :     0.111031  d :     0.506280
      dxz     :     0.114411
      dyz     :     0.079318
      dx2y2   :     0.095287
      dxy     :     0.106232
      f0      :     0.007437  f :     0.054842
      f+1     :     0.008751
      f-1     :     0.006251
      f+2     :     0.006826
      f-2     :     0.010765
      f+3     :     0.008351
      f-3     :     0.006462
  3 C s       :     2.763860  s :     2.763860
      pz      :     0.970086  p :     2.945233
      px      :     1.001389
      py      :     0.973758
      dz2     :     0.056790  d :     0.372675
      dxz     :     0.107515
      dyz     :     0.055607
      dx2y2   :     0.083697
      dxy     :     0.069066
      f0      :     0.006679  f :     0.041210
      f+1     :     0.004255
      f-1     :     0.005484
      f+2     :     0.004591
      f-2     :     0.007671
      f+3     :     0.007631
      f-3     :     0.004899
  4 C s       :     2.770633  s :     2.770633
      pz      :     0.966682  p :     2.945135
      px      :     1.035632
      py      :     0.942820
      dz2     :     0.058225  d :     0.382684
      dxz     :     0.086356
      dyz     :     0.069924
      dx2y2   :     0.092461
      dxy     :     0.075717
      f0      :     0.005590  f :     0.042322
      f+1     :     0.007095
      f-1     :     0.003394
      f+2     :     0.004973
      f-2     :     0.007902
      f+3     :     0.007502
      f-3     :     0.005866
  5 C s       :     2.770050  s :     2.770050
      pz      :     1.007289  p :     2.952207
      px      :     0.988283
      py      :     0.956635
      dz2     :     0.102972  d :     0.379943
      dxz     :     0.077737
      dyz     :     0.065981
      dx2y2   :     0.049659
      dxy     :     0.083594
      f0      :     0.005183  f :     0.042378
      f+1     :     0.007595
      f-1     :     0.005916
      f+2     :     0.006649
      f-2     :     0.008392
      f+3     :     0.003850
      f-3     :     0.004792
  6 H s       :     0.791517  s :     0.791517
      pz      :     0.022252  p :     0.059316
      px      :     0.024786
      py      :     0.012277
  7 H s       :     0.792498  s :     0.792498
      pz      :     0.011840  p :     0.059425
      px      :     0.028157
      py      :     0.019427
  8 H s       :     0.788321  s :     0.788321
      pz      :     0.025603  p :     0.059637
      px      :     0.011287
      py      :     0.022748
  9 H s       :     0.789952  s :     0.789952
      pz      :     0.022996  p :     0.061080
      px      :     0.024962
      py      :     0.013122
 10 H s       :     0.792347  s :     0.792347
      pz      :     0.025161  p :     0.059323
      px      :     0.011405
      py      :     0.022757
 11 C s       :     2.780858  s :     2.780858
      pz      :     0.977752  p :     2.960130
      px      :     0.946570
      py      :     1.035808
      dz2     :     0.110342  d :     0.458781
      dxz     :     0.104724
      dyz     :     0.042614
      dx2y2   :     0.105198
      dxy     :     0.095903
      f0      :     0.006274  f :     0.052507
      f+1     :     0.009504
      f-1     :     0.004875
      f+2     :     0.006895
      f-2     :     0.011211
      f+3     :     0.007318
      f-3     :     0.006430
 12 N s       :     3.040004  s :     3.040004
      pz      :     1.181068  p :     3.821142
      px      :     1.170573
      py      :     1.469500
      dz2     :     0.043676  d :     0.153558
      dxz     :     0.032275
      dyz     :     0.022246
      dx2y2   :     0.018298
      dxy     :     0.037064
      f0      :     0.001192  f :     0.010401
      f+1     :     0.002057
      f-1     :     0.001215
      f+2     :     0.001343
      f-2     :     0.002361
      f+3     :     0.000788
      f-3     :     0.001446
 13 H s       :     0.686909  s :     0.686909
      pz      :     0.047933  p :     0.097821
      px      :     0.020230
      py      :     0.029658
 14 H s       :     0.683186  s :     0.683186
      pz      :     0.019093  p :     0.104498
      px      :     0.045127
      py      :     0.040278
 15 H s       :     0.794295  s :     0.794295
      pz      :     0.011138  p :     0.057200
      px      :     0.012540
      py      :     0.033522
 16 H s       :     0.785149  s :     0.785149
      pz      :     0.033029  p :     0.056361
      px      :     0.010654
      py      :     0.012678
 17 Cus       :     6.238639  s :     6.238639
      pz      :     4.006244  p :    12.110419
      px      :     4.064858
      py      :     4.039318
      dz2     :     2.002928  d :    10.047475
      dxz     :     2.008203
      dyz     :     2.006816
      dx2y2   :     2.026457
      dxy     :     2.003072
      f0      :     0.000004  f :     0.000067
      f+1     :     0.000010
      f-1     :     0.000006
      f+2     :     0.000003
      f-2     :     0.000006
      f+3     :     0.000014
      f-3     :     0.000024


                      *****************************
                      * MAYER POPULATION ANALYSIS *
                      *****************************

  NA   - Mulliken gross atomic population
  ZA   - Total nuclear charge
  QA   - Mulliken gross atomic charge
  VA   - Mayer's total valence
  BVA  - Mayer's bonded valence
  FA   - Mayer's free valence

  ATOM       NA         ZA         QA         VA         BVA        FA
  0 C      6.1234     6.0000    -0.1234     3.8715     3.8715     0.0000
  1 C      6.2286     6.0000    -0.2286     3.9373     3.9373     0.0000
  2 C      5.8653     6.0000     0.1347     3.6495     3.6495    -0.0000
  3 C      6.2135     6.0000    -0.2135     3.8882     3.8882    -0.0000
  4 C      6.1368     6.0000    -0.1368     3.9067     3.9067    -0.0000
  5 C      6.1458     6.0000    -0.1458     3.8895     3.8895    -0.0000
  6 H      0.8586     1.0000     0.1414     0.9646     0.9646     0.0000
  7 H      0.8591     1.0000     0.1409     0.9645     0.9645    -0.0000
  8 H      0.8640     1.0000     0.1360     0.9700     0.9700     0.0000
  9 H      0.8689     1.0000     0.1311     0.9868     0.9868    -0.0000
 10 H      0.8604     1.0000     0.1396     0.9665     0.9665    -0.0000
 11 C      6.0756     6.0000    -0.0756     3.7775     3.7775     0.0000
 12 N      7.4721     7.0000    -0.4721     3.2112     3.2112     0.0000
 13 H      0.7054     1.0000     0.2946     0.9096     0.9096     0.0000
 14 H      0.7139     1.0000     0.2861     0.9064     0.9064     0.0000
 15 H      0.8572     1.0000     0.1428     0.9472     0.9472     0.0000
 16 H      0.8505     1.0000     0.1495     0.9559     0.9559     0.0000
 17 Cu    28.3010    29.0000     0.6990     0.6021     0.6021     0.0000

  Mayer bond orders larger than 0.100000
B(  0-C ,  1-C ) :   1.4199 B(  0-C ,  5-C ) :   1.3855 B(  0-C ,  6-H ) :   0.9733 
B(  1-C ,  2-C ) :   1.3511 B(  1-C ,  8-H ) :   0.9790 B(  2-C ,  3-C ) :   1.3419 
B(  2-C , 11-C ) :   0.9484 B(  3-C ,  4-C ) :   1.4172 B(  3-C ,  9-H ) :   0.9631 
B(  4-C ,  5-C ) :   1.4044 B(  4-C , 10-H ) :   0.9724 B(  5-C ,  7-H ) :   0.9691 
B( 11-C , 12-N ) :   0.8891 B( 11-C , 15-H ) :   0.9485 B( 11-C , 16-H ) :   0.9565 
B( 12-N , 13-H ) :   0.8881 B( 12-N , 14-H ) :   0.8691 B( 12-N , 17-Cu) :   0.5255 


-------
TIMINGS
-------

Total SCF time: 0 days 0 hours 6 min 37 sec 

Total time                  ....     397.144 sec
Sum of individual times     ....     360.666 sec  ( 90.8%)

Fock matrix formation       ....     167.835 sec  ( 42.3%)
  Split-RI-J                ....      54.036 sec  ( 32.2% of F)
  Chain of spheres X        ....      22.677 sec  ( 13.5% of F)
  XC integration            ....      14.522 sec  (  8.7% of F)
    Basis function eval.    ....       0.522 sec  (  3.6% of XC)
    Density eval.           ....       0.547 sec  (  3.8% of XC)
    XC-Functional eval.     ....       0.168 sec  (  1.2% of XC)
    XC-Potential eval.      ....       0.436 sec  (  3.0% of XC)
Diagonalization             ....      64.654 sec  ( 16.3%)
Density matrix formation    ....       2.383 sec  (  0.6%)
Population analysis         ....       4.173 sec  (  1.1%)
Initial guess               ....       7.062 sec  (  1.8%)
Orbital Transformation      ....       0.000 sec  (  0.0%)
Orbital Orthonormalization  ....       0.000 sec  (  0.0%)
DIIS solution               ....     100.071 sec  ( 25.2%)
Grid generation             ....      14.489 sec  (  3.6%)

Maximum memory used throughout the entire SCF-calculation: 82.8 MB


-------------------------------------------------------------------------------
                          DFT DISPERSION CORRECTION                            
                                                                               
                              DFTD3 V3.1  Rev 1                                
                          USING Becke-Johnson damping                          
-------------------------------------------------------------------------------
The B3LYP functional is recognized
Active option DFTDOPT                   ...         4   

molecular C6(AA) [au] = 4498.205427 


            DFT-D V3
 parameters
 s6 scaling factor         :     1.0000 
 a1 scaling factor         :     0.3981 
[...]
      9      -0.013074   0.028671  -0.195363   0.000620   0.000310  -0.000737
     10      -0.015830   0.028500  -0.191093   0.000537   0.000544  -0.000587
     11       0.149887  -0.031709   0.105261   0.000884   0.001312   0.000129
     12      -0.098041  -0.011811   0.147233  -0.000065  -0.000137   0.000339
     13      -0.093000  -0.012552   0.145385  -0.000103  -0.000091   0.000330
     14      -0.210912   0.019843   0.025350   0.000125  -0.000183  -0.000881
     15       0.029569   0.009924  -0.084093  -0.000043   0.000074  -0.000799
     16       0.021702   0.011104  -0.084999  -0.000025   0.000041  -0.000704
     17       0.303384  -0.045184   0.066503   0.000009   0.000187   0.000545
     18      -0.064051   0.037772  -0.175983  -0.000385   0.003522  -0.040089
     19      -0.061009   0.039809  -0.186588  -0.000586   0.003203  -0.034185
     20      -0.128768  -0.012314   0.171791  -0.000606   0.010022  -0.110055
     21       0.049241   0.008195  -0.088080   0.000570  -0.001102   0.008604
     22       0.060723   0.007432  -0.089406   0.000342  -0.000912   0.008832
     23      -0.409403   0.064136  -0.097259   0.000050   0.000223  -0.000253
     24      -0.224260   0.013589   0.135099  -0.006776   0.029065  -0.308366
     25      -0.183386   0.006590   0.139143  -0.010519   0.042447  -0.438251
     26      -0.104580  -0.016915   0.227281   0.017809  -0.075906   0.825507
     27       0.146531  -0.051437   0.248265  -0.005451  -0.005387   0.002753
     28       0.141258  -0.044446   0.234902  -0.004972  -0.005599   0.002444
     29       0.048041   0.021946  -0.208446  -0.010851  -0.011405   0.005522
     30       0.226713  -0.009129  -0.093318  -0.000237  -0.000634  -0.004202
     31       0.220827  -0.008809  -0.096683  -0.000379  -0.000753  -0.004490
     32       0.062410   0.026555  -0.208015   0.000043   0.001600   0.009810
     33      -0.006547  -0.015052  -0.032676  -0.001552  -0.009339  -0.000652
     34      -0.008301  -0.013138  -0.027893  -0.064925   0.021311   0.003283
     35       0.022552  -0.015776   0.001213  -0.020343  -0.092327  -0.008190
     36      -0.031824  -0.069114  -0.038133   0.000667   0.000251  -0.000142
     37       0.004868   0.012177   0.008383   0.000046  -0.001298  -0.000136
     38      -0.002815  -0.009113  -0.002348  -0.000367   0.002000   0.000310
     39       0.289400   0.633951   0.318956   0.002630  -0.002961   0.000064
     40       0.097114   0.214138   0.104267   0.001610   0.008175   0.000593
     41      -0.083732  -0.186434  -0.094793   0.002795  -0.022195  -0.000807
     42       0.202790   0.453577   0.235558  -0.001264   0.003818   0.000663
     43      -0.124232  -0.280214  -0.157191  -0.006354   0.005232   0.001217
     44       0.205789   0.445830   0.215067   0.001979  -0.001064  -0.000743
     45       0.152133   0.028171   0.064735   0.052306   0.042752   0.001771
     46       0.079143  -0.000403   0.000434   0.348551   0.285202   0.017216
     47      -0.042156  -0.029232  -0.024486   0.696760   0.541152   0.034563
     48      -0.112856   0.025968  -0.043447  -0.053473   0.062458   0.005309
     49      -0.034948   0.040425  -0.018469   0.418762  -0.537301  -0.059461
     50       0.004386   0.030408   0.005795  -0.454678   0.559385   0.060961
     51      -0.000448  -0.000070  -0.000262  -0.000000  -0.000001  -0.000094
     52       0.000043  -0.000066   0.000078   0.000039   0.000011   0.000083
     53      -0.000004  -0.000163  -0.000215   0.000031   0.000009  -0.000088
                 48         49         50         51         52         53    
      0      -0.004092   0.016571  -0.020659   0.014231  -0.000014   0.000038
      1      -0.003465   0.014144  -0.017427   0.011779   0.000007   0.000040
      2      -0.009644   0.038863  -0.052210   0.040639  -0.000014  -0.000013
      3       0.001026  -0.002807   0.003553  -0.002964  -0.000021  -0.000071
      4       0.001125  -0.003608   0.004251  -0.003586  -0.000015  -0.000042
      5      -0.000946   0.006006  -0.004834   0.004238  -0.000167  -0.000061
      6      -0.001219  -0.000967  -0.000457  -0.000574   0.000089  -0.000153
      7      -0.001279  -0.001007  -0.000493  -0.000626   0.000156  -0.000008
      8       0.001392   0.000518   0.001701   0.000236   0.000082   0.000090
      9      -0.022787  -0.013516  -0.010953  -0.006525  -0.000051  -0.000025
     10      -0.020290  -0.012112  -0.009912  -0.005964  -0.000096  -0.000070
     11      -0.062541  -0.035382  -0.025365  -0.013748   0.000027   0.000064
     12      -0.015137   0.009455   0.022495   0.015886   0.000042   0.000009
     13      -0.015773   0.009726   0.023315   0.016558   0.000020  -0.000004
     14       0.036715  -0.016235  -0.047670  -0.038868   0.000052   0.000012
     15       0.015412  -0.040865  -0.004407   0.043788   0.000035  -0.000007
     16       0.015253  -0.040473  -0.004457   0.043400   0.000020  -0.000013
     17       0.000615  -0.003262   0.003475   0.003073  -0.000030   0.000019
     18       0.045290  -0.181891   0.233323  -0.169951  -0.000068  -0.000002
     19       0.038129  -0.152908   0.195923  -0.142417  -0.000014  -0.000010
     20       0.115392  -0.461532   0.596676  -0.440542  -0.000034  -0.000027
     21      -0.183175   0.478091   0.049688  -0.485490  -0.000260   0.000047
     22      -0.181436   0.473445   0.049231  -0.480702  -0.000199  -0.000003
     23      -0.012075   0.032856  -0.001126  -0.032991  -0.000006   0.000003
     24      -0.006438   0.024679  -0.023520   0.019475  -0.000504   0.000046
     25      -0.008848   0.034734  -0.032662   0.027031  -0.000502   0.000052
     26       0.015518  -0.064243   0.057535  -0.047502   0.001251   0.000035
     27       0.271760   0.152811   0.110748   0.060264   0.000052  -0.000051
     28       0.242864   0.136642   0.099133   0.054066   0.000299  -0.000169
     29       0.719407   0.402806   0.287719   0.154374   0.000227  -0.000308
     30       0.189597  -0.092974  -0.246826  -0.185252  -0.000091  -0.000033
     31       0.197193  -0.096579  -0.256495  -0.192647  -0.000065   0.000029
     32      -0.428312   0.202636   0.549523   0.418982   0.000073  -0.000028
     33      -0.000103  -0.000133  -0.000041  -0.000090  -0.000236  -0.000305
     34      -0.000368  -0.000322  -0.000131  -0.000213   0.000699   0.001195
     35      -0.001351  -0.000620  -0.000458  -0.000120   0.001960  -0.001558
     36       0.000065   0.000095   0.000015   0.000055   0.049417   0.024930
     37       0.000013   0.000028   0.000012   0.000017   0.002508   0.049739
     38       0.000005  -0.000015  -0.000017  -0.000029   0.029979  -0.058370
     39       0.000441   0.000198   0.000146   0.000156  -0.265495   0.219514
     40      -0.000036   0.000038  -0.000104  -0.000081   0.311868  -0.216206
     41       0.000033  -0.000249   0.000137   0.000217  -0.679633   0.514805
     42       0.000156   0.000160   0.000102   0.000259  -0.414633  -0.562655
     43      -0.000040  -0.000183  -0.000079  -0.000004  -0.362056  -0.477213
     44       0.000109   0.000290  -0.000024   0.000087   0.252556   0.298015
     45       0.002343   0.001607   0.000481   0.000828  -0.002912   0.000688
     46       0.008370   0.004796   0.002105   0.001824  -0.001824   0.003115
     47       0.013425   0.007273   0.003445   0.002742  -0.008908   0.006567
     48       0.000553   0.000578   0.000411   0.000305  -0.003533   0.002143
     49      -0.001203   0.000727   0.000275   0.001539   0.007017  -0.013520
     50       0.002490   0.000171   0.000322  -0.001280  -0.007289   0.013075
     51      -0.000014  -0.000003  -0.000000  -0.000016   0.000041   0.000000
     52       0.000005  -0.000002   0.000006   0.000002   0.000019  -0.000005
     53       0.000001   0.000011  -0.000003   0.000008   0.000038  -0.000060


-----------
IR SPECTRUM
-----------

 Mode   freq       eps      Int      T**2         TX        TY        TZ
       cm**-1   L/(mol*cm) km/mol    a.u.
----------------------------------------------------------------------------
  6:     43.32   0.000835    4.22  0.006016  (-0.070930  0.010880  0.029439)
  7:     70.57   0.000757    3.83  0.003349  ( 0.055322 -0.006433 -0.015706)
  8:    103.93   0.000681    3.44  0.002045  (-0.013591 -0.033522  0.027141)
  9:    150.58   0.002785   14.07  0.005771  ( 0.059416 -0.038678 -0.027292)
 10:    297.27   0.000445    2.25  0.000467  (-0.020884 -0.004565  0.003185)
 11:    347.68   0.000280    1.42  0.000252  (-0.002512  0.009581 -0.012394)
 12:    413.00   0.000627    3.17  0.000474  ( 0.018454 -0.010966  0.003630)
 13:    424.12   0.000322    1.62  0.000237  ( 0.013260 -0.002473  0.007393)
 14:    509.82   0.002333   11.79  0.001428  ( 0.032499 -0.014247 -0.012987)
 15:    531.31   0.008154   41.21  0.004789  ( 0.017787  0.037474 -0.055396)
 16:    628.64   0.006565   33.18  0.003259  (-0.012900 -0.048085  0.027938)
 17:    635.82   0.000047    0.24  0.000023  ( 0.001894 -0.001565  0.004134)
 18:    727.65   0.016816   84.98  0.007212  ( 0.057255 -0.062649 -0.002987)
 19:    775.31   0.008784   44.39  0.003536  ( 0.049172 -0.031605 -0.010898)
 20:    819.16   0.004130   20.87  0.001573  (-0.036237  0.008120  0.013940)
 21:    862.24   0.000465    2.35  0.000168  ( 0.005899  0.002784 -0.011212)
 22:    924.51   0.007452   37.66  0.002515  (-0.036758  0.030109  0.016050)
 23:    937.85   0.002742   13.86  0.000912  (-0.025958  0.006889  0.013826)
 24:    978.42   0.003646   18.43  0.001163  ( 0.031358 -0.009268 -0.009680)
 25:    988.87   0.000178    0.90  0.000056  (-0.005325 -0.000364  0.005254)
 26:   1016.58   0.000196    0.99  0.000060  ( 0.005073 -0.005071 -0.002968)
 27:   1021.93   0.000388    1.96  0.000118  ( 0.008438 -0.002726 -0.006302)
 28:   1048.64   0.001106    5.59  0.000329  (-0.010286 -0.014661 -0.002899)
 29:   1072.65   0.017135   86.59  0.004985  ( 0.021337 -0.048947 -0.046193)
 30:   1103.98   0.003055   15.44  0.000864  ( 0.009003 -0.027912 -0.001868)
 31:   1158.35   0.001063    5.37  0.000286  (-0.001863  0.006082  0.015685)
 32:   1180.38   0.000011    0.05  0.000003  ( 0.000251 -0.000941 -0.001370)
 33:   1195.06   0.000042    0.21  0.000011  ( 0.001086  0.003116 -0.000289)
 34:   1232.03   0.002905   14.68  0.000736  ( 0.017043  0.020210  0.006071)
 35:   1309.40   0.000552    2.79  0.000132  ( 0.007841  0.005329  0.006456)
 36:   1344.54   0.000146    0.74  0.000034  (-0.003391  0.004478 -0.001539)
 37:   1363.42   0.000005    0.03  0.000001  ( 0.000674 -0.000866 -0.000232)
 38:   1394.22   0.003561   18.00  0.000797  (-0.025839 -0.011375 -0.000338)
 39:   1483.96   0.001731    8.75  0.000364  (-0.003519  0.003114 -0.018489)
 40:   1495.53   0.000905    4.57  0.000189  ( 0.001341  0.013568 -0.001729)
 41:   1526.49   0.002071   10.47  0.000423  ( 0.011786  0.016054  0.005179)
 42:   1618.08   0.001186    5.99  0.000229  ( 0.012636  0.002722 -0.007849)
 43:   1621.16   0.008797   44.46  0.001693  ( 0.034688 -0.001933  0.022053)
 44:   1636.61   0.001611    8.14  0.000307  ( 0.017226  0.001905 -0.002604)
 45:   3066.60   0.005484   27.71  0.000558  ( 0.000058 -0.022493 -0.007217)
 46:   3116.54   0.001858    9.39  0.000186  ( 0.000032  0.001568 -0.013548)
 47:   3129.59   0.000989    5.00  0.000099  ( 0.007624  0.004043 -0.004915)
 48:   3172.82   0.000582    2.94  0.000057  (-0.003885 -0.004727 -0.004454)
 49:   3181.46   0.000477    2.41  0.000047  (-0.004290 -0.004936 -0.002003)
 50:   3189.87   0.002625   13.26  0.000257  (-0.001443 -0.000800 -0.015939)
 51:   3199.56   0.001780    9.00  0.000174  ( 0.010196  0.008204 -0.001540)
 52:   3469.06   0.005877   29.70  0.000529  (-0.020516 -0.001736 -0.010237)
 53:   3533.10   0.010998   55.58  0.000971  (-0.007920 -0.017989  0.024187)

* The epsilon (eps) is given for a Dirac delta lineshape.
** The dipole moment derivative (T) already includes vibrational overlap.

The first frequency considered to be a vibration is 6
The total number of vibrations considered is 48


--------------------------
THERMOCHEMISTRY AT 298.15K
--------------------------

Temperature         ... 298.15 K
Pressure            ... 1.00 atm
Total Mass          ... 170.71 AMU

Throughout the following assumptions are being made:
  (1) The electronic state is orbitally nondegenerate
  (2) There are no thermally accessible electronically excited states
  (3) Hindered rotations indicated by low frequency modes are not
      treated as such but are treated as vibrations and this may
      cause some error
  (4) All equations used are the standard statistical mechanics
      equations for an ideal gas
  (5) All vibrations are strictly harmonic

freq.      43.32  E(vib)   ...       0.53 
freq.      70.57  E(vib)   ...       0.50 
freq.     103.93  E(vib)   ...       0.46 
freq.     150.58  E(vib)   ...       0.40 
freq.     297.27  E(vib)   ...       0.27 
freq.     347.68  E(vib)   ...       0.23 
freq.     413.00  E(vib)   ...       0.19 
freq.     424.12  E(vib)   ...       0.18 
freq.     509.82  E(vib)   ...       0.14 
freq.     531.31  E(vib)   ...       0.13 
freq.     628.64  E(vib)   ...       0.09 
freq.     635.82  E(vib)   ...       0.09 
freq.     727.65  E(vib)   ...       0.06 
freq.     775.31  E(vib)   ...       0.05 
freq.     819.16  E(vib)   ...       0.05 
freq.     862.24  E(vib)   ...       0.04 
freq.     924.51  E(vib)   ...       0.03 
freq.     937.85  E(vib)   ...       0.03 
freq.     978.42  E(vib)   ...       0.03 
freq.     988.87  E(vib)   ...       0.02 
freq.    1016.58  E(vib)   ...       0.02 
freq.    1021.93  E(vib)   ...       0.02 
freq.    1048.64  E(vib)   ...       0.02 
freq.    1072.65  E(vib)   ...       0.02 
freq.    1103.98  E(vib)   ...       0.02 
freq.    1158.35  E(vib)   ...       0.01 
freq.    1180.38  E(vib)   ...       0.01 
freq.    1195.06  E(vib)   ...       0.01 
freq.    1232.03  E(vib)   ...       0.01 
freq.    1309.40  E(vib)   ...       0.01 
freq.    1344.54  E(vib)   ...       0.01 
freq.    1363.42  E(vib)   ...       0.01 
freq.    1394.22  E(vib)   ...       0.00 
freq.    1483.96  E(vib)   ...       0.00 
freq.    1495.53  E(vib)   ...       0.00 
freq.    1526.49  E(vib)   ...       0.00 
freq.    1618.08  E(vib)   ...       0.00 
freq.    1621.16  E(vib)   ...       0.00 
freq.    1636.61  E(vib)   ...       0.00 
freq.    3066.60  E(vib)   ...       0.00 
freq.    3116.54  E(vib)   ...       0.00 
freq.    3129.59  E(vib)   ...       0.00 
freq.    3172.82  E(vib)   ...       0.00 
freq.    3181.46  E(vib)   ...       0.00 
freq.    3189.87  E(vib)   ...       0.00 
freq.    3199.56  E(vib)   ...       0.00 
freq.    3469.06  E(vib)   ...       0.00 
freq.    3533.10  E(vib)   ...       0.00 

------------
INNER ENERGY
------------

The inner energy is: U= E(el) + E(ZPE) + E(vib) + E(rot) + E(trans)
    E(el)   - is the total energy from the electronic structure calculation
              = E(kin-el) + E(nuc-el) + E(el-el) + E(nuc-nuc)
    E(ZPE)  - the the zero temperature vibrational energy from the frequency calculation
    E(vib)  - the the finite temperature correction to E(ZPE) due to population
              of excited vibrational states
    E(rot)  - is the rotational thermal energy
    E(trans)- is the translational thermal energy

Summary of contributions to the inner energy U:
Electronic energy                ...  -1967.19623473 Eh
Zero point energy                ...      0.14819865 Eh      93.00 kcal/mol
Thermal vibrational correction   ...      0.00586557 Eh       3.68 kcal/mol
Thermal rotational correction    ...      0.00141627 Eh       0.89 kcal/mol
Thermal translational correction ...      0.00141627 Eh       0.89 kcal/mol
-----------------------------------------------------------------------
Total thermal energy                  -1967.03933796 Eh


Summary of corrections to the electronic energy:
(perhaps to be used in another calculation)
Total thermal correction                  0.00869811 Eh       5.46 kcal/mol
Non-thermal (ZPE) correction              0.14819865 Eh      93.00 kcal/mol
-----------------------------------------------------------------------
Total correction                          0.15689677 Eh      98.45 kcal/mol


--------
ENTHALPY
--------

The enthalpy is H = U + kB*T
                kB is Boltzmann's constant
Total free energy                 ...  -1967.03933796 Eh 
Thermal Enthalpy correction       ...      0.00094421 Eh       0.59 kcal/mol
-----------------------------------------------------------------------
Total Enthalpy                    ...  -1967.03839375 Eh


Note: Only C1 symmetry has been detected, increase convergence thresholds 
      if your molecule has a higher symmetry. Symmetry factor of 1.0 is   
      used for the rotational entropy correction. 
 

Note: Rotational entropy computed according to Herzberg 
Infrared and Raman Spectra, Chapter V,1, Van Nostrand Reinhold, 1945 
Point Group:  C1, Symmetry Number:   1  
Rotational constants in cm-1:     0.070428     0.032697     0.026410 

Vibrational entropy computed according to the QRRHO of S. Grimme
Chem.Eur.J. 2012 18 9955


-------
ENTROPY
-------

The entropy contributions are T*S = T*(S(el)+S(vib)+S(rot)+S(trans))
     S(el)   - electronic entropy
     S(vib)  - vibrational entropy
     S(rot)  - rotational entropy
     S(trans)- translational entropy
The entropies will be listed as multiplied by the temperature to get
units of energy

Electronic entropy                ...      0.00000000 Eh      0.00 kcal/mol
Vibrational entropy               ...      0.01012236 Eh      6.35 kcal/mol
Rotational entropy                ...      0.01409369 Eh      8.84 kcal/mol
Translational entropy             ...      0.01962863 Eh     12.32 kcal/mol
-----------------------------------------------------------------------
Final entropy term                ...      0.04384467 Eh     27.51 kcal/mol

In case the symmetry of your molecule has not been determined correctly
or in case you have a reason to use a different symmetry number we print 
out the resulting rotational entropy values for sn=1,12 :
 --------------------------------------------------------
|  sn= 1 | S(rot)=       0.01409369 Eh      8.84 kcal/mol|
|  sn= 2 | S(rot)=       0.01343923 Eh      8.43 kcal/mol|
|  sn= 3 | S(rot)=       0.01305640 Eh      8.19 kcal/mol|
|  sn= 4 | S(rot)=       0.01278478 Eh      8.02 kcal/mol|
|  sn= 5 | S(rot)=       0.01257409 Eh      7.89 kcal/mol|
|  sn= 6 | S(rot)=       0.01240195 Eh      7.78 kcal/mol|
|  sn= 7 | S(rot)=       0.01225640 Eh      7.69 kcal/mol|
|  sn= 8 | S(rot)=       0.01213032 Eh      7.61 kcal/mol|
|  sn= 9 | S(rot)=       0.01201911 Eh      7.54 kcal/mol|
|  sn=10 | S(rot)=       0.01191963 Eh      7.48 kcal/mol|
|  sn=11 | S(rot)=       0.01182964 Eh      7.42 kcal/mol|
|  sn=12 | S(rot)=       0.01174749 Eh      7.37 kcal/mol|
 --------------------------------------------------------


-------------------
GIBBS FREE ENERGY
-------------------

The Gibbs free energy is G = H - T*S

Total enthalpy                    ...  -1967.03839375 Eh 
Total entropy correction          ...     -0.04384467 Eh    -27.51 kcal/mol
-----------------------------------------------------------------------
Final Gibbs free energy         ...  -1967.08223843 Eh

For completeness - the Gibbs free energy minus the electronic energy
G-E(el)                           ...      0.11399630 Eh     71.53 kcal/mol


Timings for individual modules:

Sum of individual times         ...    18414.888 sec (= 306.915 min)
GTO integral calculation        ...      494.553 sec (=   8.243 min)   2.7 %
SCF iterations                  ...    15873.022 sec (= 264.550 min)  86.2 %
SCF Gradient evaluation         ...      875.597 sec (=  14.593 min)   4.8 %
Geometry relaxation             ...        2.391 sec (=   0.040 min)   0.0 %
Analytical frequency calculation...     1169.325 sec (=  19.489 min)   6.3 %
                             ****ORCA TERMINATED NORMALLY****
TOTAL RUN TIME: 0 days 5 hours 11 minutes 37 seconds 612 msec
