18
Coordinates from ORCA-job orca Relaxed Surface Scan Step 1
  C      -2.946065      1.814707      1.593614
  C      -1.823605      2.607204      1.414473
  C      -0.643036      2.324463      2.111037
  C      -0.597570      1.224850      2.976269
  C      -1.722127      0.434052      3.149902
  C      -2.897169      0.726727      2.460756
  H      -3.857874      2.043075      1.057899
  H      -3.771919      0.104448      2.597971
  H      -1.853635      3.450607      0.735908
  H       0.310991      0.968042      3.506563
  H      -1.683099     -0.414840      3.819517
  C       0.493776      3.218424      1.906543
  N       1.528498      3.302797      2.816933
  H       0.303487      4.129570      1.355605
  H       1.051939      2.388548     -0.144623
  H       1.988309      4.196273      2.936101
  H       1.524067      2.712518      3.637913
  Cu      2.017493      2.402994      0.980660
>
18
Coordinates from ORCA-job orca Relaxed Surface Scan Step 2
  C      -2.946238      1.815112      1.594305
  C      -1.823128      2.606289      1.412949
  C      -0.642008      2.322855      2.107984
  C      -0.596355      1.223717      2.973510
  C      -1.721542      0.434113      3.149424
  C      -2.897329      0.727596      2.462046
  H      -3.858593      2.044214      1.059813
  H      -3.772550      0.106355      2.600947
  H      -1.853361      3.449306      0.733891
  H       0.312847      0.966073      3.502359
  H      -1.682234     -0.414455      3.819444
  C       0.496263      3.215839      1.902031
  N       1.527724      3.302822      2.817134
  H       0.305212      4.127400      1.352085
  H       1.045953      2.396531     -0.133459
  H       1.985428      4.197202      2.937149
  H       1.519532      2.714073      3.639121
  Cu      2.022838      2.399418      0.982307
>
18
Coordinates from ORCA-job orca Relaxed Surface Scan Step 3
  C      -2.946305      1.815952      1.595228
  C      -1.822803      2.606327      1.412179
  C      -0.640838      2.321820      2.105046
  C      -0.594861      1.222830      2.970514
  C      -1.720439      0.433977      3.148240
  C      -2.897029      0.728315      2.462769
  H      -3.859305      2.045871      1.062163
  H      -3.772545      0.107775      2.602968
  H      -1.853519      3.449354      0.733129
  H       0.315085      0.964571      3.497836
  H      -1.680684     -0.414635      3.818196
  C       0.498819      3.213873      1.897488
  N       1.526475      3.303220      2.817121
  H       0.307391      4.125634      1.348321
  H       1.038379      2.399346     -0.120428
  H       1.981928      4.198488      2.938082
  H       1.513905      2.716156      3.640109
  Cu      2.028808      2.395586      0.984080
>
18
Coordinates from ORCA-job orca Relaxed Surface Scan Step 4
  C      -2.946601      1.816644      1.596134
  C      -1.822467      2.605737      1.410918
  C      -0.639849      2.320270      2.102017
  C      -0.593552      1.221430      2.967450
  C      -1.719716      0.433772      3.147357
  C      -2.897164      0.729214      2.463916
  H      -3.860229      2.047471      1.064521
  H      -3.773143      0.109698      2.605751
  H      -1.853498      3.448618      0.731685
  H       0.317142      0.962172      3.493055
  H      -1.679620     -0.414759      3.817406
  C       0.500978      3.211440      1.893205
  N       1.525540      3.303836      2.817340
  H       0.308880      4.123032      1.344031
  H       1.032613      2.405780     -0.108185
  H       1.978967      4.200033      2.938672
  H       1.509431      2.718625      3.641543
  Cu      2.034747      2.391445      0.986225
>
18
Coordinates from ORCA-job orca Relaxed Surface Scan Step 5
  C      -2.946835      1.817467      1.597159
  C      -1.822290      2.605686      1.410142
  C      -0.638799      2.319140      2.099003
  C      -0.592158      1.220487      2.964391
  C      -1.718729      0.433621      3.146208
  C      -2.897019      0.729939      2.464778
  H      -3.861141      2.049169      1.067066
  H      -3.773302      0.111172      2.608019
  H      -1.853829      3.448599      0.730945
  H       0.319287      0.960583      3.488423
  H      -1.678167     -0.414933      3.816217
  C       0.503479      3.209368      1.888489
  N       1.524254      3.304176      2.817143
  H       0.310995      4.121357      1.340383
  H       1.026350      2.408699     -0.095028
  H       1.975236      4.201335      2.939494
  H       1.503932      2.720473      3.642178
  Cu      2.041197      2.388123      0.988030
>
18
Coordinates from ORCA-job orca Relaxed Surface Scan Step 6
  C      -2.947274      1.818352      1.598293
  C      -1.822088      2.605277      1.409089
  C      -0.637857      2.317542      2.095947
  C      -0.590832      1.218840      2.961099
  C      -1.717988      0.433233      3.145120
  C      -2.897218      0.730875      2.465930
  H      -3.862266      2.051099      1.069827
  H      -3.773973      0.113158      2.610810
  H      -1.854018      3.448194      0.729901
  H       0.321438      0.957807      3.483203
  H      -1.677050     -0.415380      3.815041
  C       0.505518      3.206821      1.884130
  N       1.523353      3.305064      2.817232
  H       0.312245      4.118343      1.335540
  H       1.021581      2.414492     -0.082343
  H       1.972002      4.203328      2.939778
  H       1.499461      2.723520      3.643668
  Cu      2.047428      2.383896      0.990775
>
18
Coordinates from ORCA-job orca Relaxed Surface Scan Step 7
  C      -2.947662      1.819449      1.599527
  C      -1.822032      2.605443      1.408450
  C      -0.636860      2.316280      2.092837
  C      -0.589354      1.217472      2.957691
  C      -1.716926      0.432800      3.143654
  C      -2.897131      0.731712      2.466777
  H      -3.863402      2.053253      1.072806
  H      -3.774260      0.114879      2.613189
  H      -1.854540      3.448570      0.729533
  H       0.323786      0.955488      3.477841
  H      -1.675489     -0.416034      3.813280
  C       0.507584      3.204666      1.879664
  N       1.522121      3.306015      2.817144
  H       0.313709      4.115779      1.330848
  H       1.015954      2.417112     -0.068556
  H       1.968257      4.205350      2.940197
  H       1.494196      2.726560      3.644810
  Cu      2.054508      2.379666      0.993349
>
18
Coordinates from ORCA-job orca Relaxed Surface Scan Step 8
  C      -2.948195      1.820425      1.600845
  C      -1.822094      2.605346      1.407602
  C      -0.635944      2.315086      2.089520
  C      -0.587918      1.216344      2.954092
  C      -1.715949      0.432600      3.142309
  C      -2.897178      0.732559      2.467897
  H      -3.864751      2.055297      1.075990
  H      -3.774617      0.116561      2.615966
  H      -1.855236      3.448612      0.728858
  H       0.326054      0.953499      3.472400
  H      -1.673909     -0.416290      3.811843
  C       0.510130      3.202502      1.874427
  N       1.520758      3.306376      2.816701
  H       0.315644      4.114572      1.327570
  H       1.011537      2.418315     -0.054771
  H       1.963765      4.206970      2.941104
  H       1.488529      2.728291      3.645053
  Cu      2.061834      2.377397      0.995634
>
18
Coordinates from ORCA-job orca Relaxed Surface Scan Step 9
  C      -2.948902      1.821755      1.602564
  C      -1.822178      2.605415      1.407047
  C      -0.635027      2.313453      2.086256
  C      -0.586444      1.214313      2.950219
  C      -1.715028      0.431892      3.140768
  C      -2.897410      0.733584      2.469130
  H      -3.866308      2.057964      1.079780
  H      -3.775323      0.118673      2.618923
  H      -1.855950      3.449000      0.728718
  H       0.328561      0.950157      3.466102
  H      -1.672487     -0.417327      3.809866
  C       0.512117      3.199794      1.869659
  N       1.519669      3.307635      2.816463
  H       0.316576      4.110972      1.321763
  H       1.008555      2.422496     -0.041424
  H       1.959379      4.209760      2.941170
  H       1.482954      2.732383      3.646576
  Cu      2.069706      2.372541      0.999461
>
18
Coordinates from ORCA-job orca Relaxed Surface Scan Step 10
  C      -2.949564      1.822849      1.604083
  C      -1.822377      2.605474      1.406468
  C      -0.634177      2.312053      2.082980
  C      -0.585093      1.212852      2.946672
  C      -1.714123      0.431447      3.139384
  C      -2.897547      0.734437      2.470270
  H      -3.867796      2.060215      1.083251
  H      -3.775829      0.120460      2.621756
  H      -1.856808      3.449331      0.728492
  H       0.330764      0.947723      3.460574
  H      -1.671046     -0.417938      3.808253
  C       0.514178      3.197412      1.864698
  N       1.518400      3.308232      2.815827
  H       0.317983      4.108627      1.317298
  H       1.005372      2.425747     -0.027831
  H       1.954755      4.211755      2.941458
  H       1.477291      2.735075      3.647081
  Cu      2.078077      2.368708      1.002325
>
18
Coordinates from ORCA-job orca Relaxed Surface Scan Step 11
  C      -2.950167      1.823694      1.605339
  C      -1.822556      2.605283      1.405603
  C      -0.633381      2.310847      2.079684
  C      -0.583826      1.211808      2.943207
  C      -1.713274      0.431284      3.138136
  C      -2.897672      0.735206      2.471403
  H      -3.869192      2.062082      1.086344
  H      -3.776232      0.122040      2.624562
  H      -1.857618      3.449278      0.727798
  H       0.332803      0.945898      3.455379
  H      -1.669608     -0.418110      3.806974
  C       0.516649      3.195208      1.859348
  N       1.517286      3.308324      2.815113
  H       0.320052      4.107635      1.314208
  H       1.001944      2.427257     -0.014009
  H       1.950482      4.213080      2.942079
  H       1.472126      2.736460      3.646935
  Cu      2.084643      2.367186      1.004937
>
18
Coordinates from ORCA-job orca Relaxed Surface Scan Step 12
  C      -2.951210      1.825620      1.607753
  C      -1.822933      2.605864      1.405543
  C      -0.632496      2.309055      2.076091
  C      -0.582155      1.209160      2.938483
  C      -1.712200      0.430187      3.136031
  C      -2.898029      0.736453      2.472810
  H      -3.871253      2.065737      1.091354
  H      -3.777121      0.124530      2.627895
  H      -1.858834      3.450520      0.728598
  H       0.335728      0.941467      3.447535
  H      -1.667882     -0.419841      3.804032
  C       0.518582      3.192107      1.853996
  N       1.516286      3.310093      2.814504
  H       0.320035      4.103249      1.307477
  H       1.001197      2.429099      0.000149
  H       1.944524      4.217112      2.941913
  H       1.465636      2.741975      3.648577
  Cu      2.094585      2.362073      1.010300
>
18
Coordinates from ORCA-job orca Relaxed Surface Scan Step 13
  C      -2.952160      1.826972      1.609652
  C      -1.823424      2.606117      1.405148
  C      -0.631783      2.307627      2.072582
  C      -0.580757      1.207466      2.934427
  C      -1.711249      0.429600      3.134363
  C      -2.898291      0.737407      2.474121
  H      -3.873152      2.068441      1.095553
  H      -3.777745      0.126475      2.631083
  H      -1.860127      3.451232      0.728802
  H       0.338082      0.938575      3.441143
  H      -1.666263     -0.420721      3.801964
  C       0.520512      3.189622      1.848612
  N       1.515111      3.310710      2.813417
  H       0.321101      4.100949      1.302870
  H       0.999738      2.430816      0.014404
  H       1.938863      4.219570      2.942108
  H       1.459522      2.745069      3.648784
  Cu      2.104483      2.358533      1.014009
>
18
Coordinates from ORCA-job orca Relaxed Surface Scan Step 14
  C      -2.953155      1.828438      1.611694
  C      -1.823911      2.606406      1.404835
  C      -0.631062      2.306126      2.069055
  C      -0.579347      1.205570      2.930189
  C      -1.710315      0.428905      3.132596
  C      -2.898610      0.738411      2.475481
  H      -3.875108      2.071366      1.099989
  H      -3.778445      0.128511      2.634326
  H      -1.861429      3.452036      0.729157
  H       0.340515      0.935378      3.434391
  H      -1.664659     -0.421783      3.799701
  C       0.522560      3.186975      1.843092
  N       1.513923      3.311565      2.812408
  H       0.322061      4.098384      1.297974
  H       0.998809      2.432093      0.028754
  H       1.933112      4.222325      2.942120
  H       1.453377      2.748499      3.649112
  Cu      2.114144      2.355255      1.018166
>
18
Coordinates from ORCA-job orca Relaxed Surface Scan Step 15
  C      -2.954281      1.830127      1.613998
  C      -1.824520      2.606872      1.404668
  C      -0.630366      2.304612      2.065385
  C      -0.577845      1.203481      2.925574
  C      -1.709299      0.428089      3.130590
  C      -2.898963      0.739505      2.476919
  H      -3.877273      2.074659      1.104913
  H      -3.779186      0.130677      2.637737
  H      -1.862932      3.453143      0.729825
  H       0.343126      0.931805      3.426989
  H      -1.662888     -0.423082      3.797044
  C       0.524584      3.184266      1.837330
  N       1.512751      3.312578      2.811229
  H       0.322762      4.095729      1.292858
  H       0.998573      2.432146      0.043548
  H       1.926706      4.225506      2.942091
  H       1.446818      2.752396      3.649421
  Cu      2.124692      2.351951      1.022919
>
18
Coordinates from ORCA-job orca Relaxed Surface Scan Step 16
  C      -2.955453      1.831676      1.616272
  C      -1.825188      2.607202      1.404484
  C      -0.629759      2.303034      2.061768
  C      -0.576492      1.201449      2.921161
  C      -1.708422      0.427317      3.128773
  C      -2.899401      0.740541      2.478438
  H      -3.879449      2.077757      1.109742
  H      -3.780003      0.132786      2.641244
  H      -1.864451      3.454058      0.730404
  H       0.345535      0.928365      3.419897
  H      -1.661292     -0.424265      3.794669
  C       0.526566      3.181423      1.831514
  N       1.511676      3.313317      2.809886
  H       0.323586      4.093044      1.287786
  H       0.999119      2.433643      0.057862
  H       1.920373      4.228388      2.941887
  H       1.440392      2.756012      3.649517
  Cu      2.135124      2.348714      1.027736
>
18
Coordinates from ORCA-job orca Relaxed Surface Scan Step 17
  C      -2.956837      1.833805      1.619085
  C      -1.826038      2.608014      1.404590
  C      -0.629131      2.301515      2.057816
  C      -0.574823      1.198991      2.915787
  C      -1.707243      0.426255      3.126267
  C      -2.899814      0.741801      2.480012
  H      -3.882021      2.081780      1.115637
  H      -3.780806      0.135189      2.644967
  H      -1.866355      3.455764      0.731684
  H       0.348487      0.924106      3.411186
  H      -1.659198     -0.426051      3.791189
  C       0.528524      3.178638      1.825333
  N       1.510432      3.314701      2.808437
  H       0.323916      4.090242      1.282213
  H       1.000108      2.430984      0.073743
  H       1.912781      4.232361      2.941689
  H       1.433072      2.760788      3.649766
  Cu      2.147406      2.345577      1.033637
>
18
Coordinates from ORCA-job orca Relaxed Surface Scan Step 18
  C      -2.958150      1.835640      1.621651
  C      -1.826901      2.608674      1.404634
  C      -0.628580      2.300054      2.054023
  C      -0.573357      1.196845      2.910898
  C      -1.706196      0.425337      3.124042
  C      -2.900209      0.742898      2.481511
  H      -3.884443      2.085333      1.121077
  H      -3.781544      0.137348      2.648538
  H      -1.868205      3.457229      0.732784
  H       0.351107      0.920431      3.403314
  H      -1.657304     -0.427557      3.788166
  C       0.530389      3.175927      1.819284
  N       1.509291      3.315617      2.806819
  H       0.324629      4.087727      1.276973
  H       1.001080      2.429800      0.089224
  H       1.905685      4.235628      2.941319
  H       1.426138      2.764835      3.649617
  Cu      2.159031      2.342694      1.039166
>
18
Coordinates from ORCA-job orca Relaxed Surface Scan Step 19
  C      -2.959978      1.838023      1.625220
  C      -1.828192      2.609667      1.405228
  C      -0.628128      2.298301      2.049865
  C      -0.571767      1.193940      2.905111
  C      -1.705055      0.423924      3.121335
  C      -2.900851      0.744176      2.483459
  H      -3.887633      2.089912      1.128264
  H      -3.782576      0.139849      2.652854
  H      -1.870716      3.459385      0.734917
  H       0.354194      0.915617      3.393661
  H      -1.655170     -0.429897      3.784208
  C       0.532036      3.172844      1.812719
  N       1.507662      3.316956      2.804729
  H       0.325461      4.084008      1.269702
  H       1.005400      2.428970      0.104895
  H       1.896797      4.239882      2.940363
  H       1.417145      2.770619      3.649685
  Cu      2.173832      2.338286      1.046827
>
18
Coordinates from ORCA-job orca Relaxed Surface Scan Step 20
  C      -2.961532      1.839987      1.628154
  C      -1.829172      2.610166      1.405341
  C      -0.627698      2.296379      2.045878
  C      -0.570418      1.191293      2.899944
  C      -1.704260      0.422819      3.119167
  C      -2.901564      0.745414      2.485360
  H      -3.890313      2.093798      1.134273
  H      -3.783739      0.142407      2.657094
  H      -1.872596      3.460687      0.736090
  H       0.356703      0.911063      3.385214
  H      -1.653527     -0.431612      3.781208
  C       0.533968      3.169328      1.806228
  N       1.506349      3.318120      2.803207
  H       0.325666      4.080554      1.263910
  H       1.009165      2.429842      0.119530
  H       1.889207      4.243525      2.939397
  H       1.410177      2.775172      3.649695
  Cu      2.186045      2.335520      1.053349
>
18
Coordinates from ORCA-job orca Relaxed Surface Scan Step 21
  C      -2.963991      1.843483      1.633178
  C      -1.831146      2.612222      1.406874
  C      -0.627358      2.294712      2.040955
  C      -0.568301      1.187572      2.892191
  C      -1.702475      0.420654      3.114972
  C      -2.902174      0.746935      2.487547
  H      -3.894593      2.100258      1.144264
  H      -3.784672      0.145195      2.662052
  H      -1.876303      3.464667      0.740187
  H       0.360895      0.904808      3.372044
  H      -1.650249     -0.435455      3.774742
  C       0.535529      3.166213      1.798601
  N       1.503635      3.320740      2.800844
  H       0.327239      4.076128      1.254126
  H       1.016166      2.422545      0.137917
  H       1.878093      4.249492      2.937630
  H       1.398142      2.783869      3.650153
  Cu      2.204022      2.330424      1.064762
>
18
Coordinates from ORCA-job orca Relaxed Surface Scan Step 22
  C      -2.966043      1.846844      1.637618
  C      -1.832472      2.613685      1.407720
  C      -0.626803      2.292459      2.035988
  C      -0.566270      1.183535      2.884669
  C      -1.701100      0.418646      3.111198
  C      -2.902929      0.748741      2.489820
  H      -3.898200      2.106543      1.153227
  H      -3.786006      0.148713      2.667252
  H      -1.878878      3.467650      0.743060
  H       0.364594      0.897752      3.359507
  H      -1.647638     -0.438851      3.769082
  C       0.537444      3.162238      1.791249
  N       1.501398      3.323776      2.799437
  H       0.326663      4.071109      1.245876
  H       1.022473      2.416364      0.155565
  H       1.867746      4.255783      2.935804
  H       1.388841      2.791863      3.650982
  Cu      2.219639      2.327610      1.074985
>
18
Coordinates from ORCA-job orca Relaxed Surface Scan Step 23
  C      -2.969252      1.851618      1.644627
  C      -1.835055      2.616541      1.410241
  C      -0.626527      2.290169      2.029961
  C      -0.563626      1.178250      2.874529
  C      -1.698864      0.415422      3.105551
  C      -2.903760      0.750685      2.492786
  H      -3.903710      2.115343      1.166878
  H      -3.787255      0.152337      2.673760
  H      -1.883578      3.473143      0.749139
  H       0.369919      0.888834      3.341935
  H      -1.643462     -0.444549      3.760053
  C       0.539175      3.157961      1.782143
  N       1.497057      3.328178      2.797283
  H       0.328870      4.064217      1.232212
  H       1.035183      2.406729      0.175099
  H       1.854158      4.263966      2.932367
  H       1.373016      2.804725      3.652557
  Cu      2.240172      2.320893      1.091919
>
18
Coordinates from ORCA-job orca Relaxed Surface Scan Step 24
  C      -2.972656      1.856719      1.652213
  C      -1.837972      2.619863      1.413146
  C      -0.626415      2.288172      2.023695
  C      -0.560864      1.172949      2.863664
  C      -1.696315      0.411981      3.099299
  C      -2.904447      0.752593      2.495771
  H      -3.909578      2.124624      1.181654
  H      -3.788225      0.155764      2.680320
  H      -1.888867      3.479378      0.756021
  H       0.375600      0.879989      3.323105
  H      -1.638704     -0.450753      3.749979
  C       0.540949      3.153820      1.772662
  N       1.492018      3.332887      2.795088
  H       0.331784      4.057302      1.217684
  H       1.048613      2.394743      0.196032
  H       1.840520      4.272217      2.928108
  H       1.355420      2.818592      3.654075
  Cu      2.261600      2.313619      1.110524
>
18
Coordinates from ORCA-job orca Relaxed Surface Scan Step 25
  C      -2.975799      1.861826      1.659618
  C      -1.840556      2.622989      1.415700
  C      -0.626180      2.285910      2.017215
  C      -0.558108      1.167536      2.852756
  C      -1.693875      0.408676      3.093238
  C      -2.905095      0.754722      2.498886
  H      -3.915046      2.133858      1.196112
  H      -3.789263      0.159651      2.687189
  H      -1.893626      3.485155      0.762236
  H       0.381066      0.870951      3.304423
  H      -1.634172     -0.456650      3.740292
  C       0.542864      3.149185      1.763256
  N       1.487576      3.337435      2.793130
  H       0.333116      4.049913      1.203906
  H       1.061840      2.383896      0.216582
  H       1.826675      4.280520      2.923956
  H       1.338626      2.831962      3.655384
  Cu      2.282417      2.306925      1.129160
>
18
Coordinates from ORCA-job orca Relaxed Surface Scan Step 26
  C      -2.978850      1.865904      1.666096
  C      -1.843453      2.625864      1.418111
  C      -0.626513      2.284601      2.011692
  C      -0.556026      1.163635      2.843521
  C      -1.691692      0.406036      3.088030
  C      -2.905600      0.756147      2.501462
  H      -3.920177      2.141147      1.208728
  H      -3.789777      0.162059      2.692791
  H      -1.898721      3.490374      0.767940
  H       0.385617      0.864627      3.288541
  H      -1.629940     -0.461513      3.731920
  C       0.544214      3.145557      1.754404
  N       1.484336      3.340116      2.790179
  H       0.335440      4.044634      1.191935
  H       1.073003      2.376556      0.236332
  H       1.815196      4.286333      2.919717
  H       1.322960      2.843121      3.655210
  Cu      2.302444      2.299264      1.146431
>
18
Coordinates from ORCA-job orca Relaxed Surface Scan Step 27
  C      -2.981665      1.869715      1.672085
  C      -1.846077      2.628390      1.420114
  C      -0.626809      2.283175      2.006270
  C      -0.554179      1.159931      2.834788
  C      -1.689832      0.403711      3.083338
  C      -2.906178      0.757663      2.504063
  H      -3.924872      2.147932      1.220411
  H      -3.790449      0.164704      2.698429
  H      -1.903316      3.494920      0.772811
  H       0.389644      0.858563      3.273673
  H      -1.626232     -0.465747      3.724481
  C       0.545572      3.141755      1.745841
  N       1.481962      3.342169      2.787134
  H       0.336383      4.039560      1.181350
  H       1.083372      2.370606      0.255625
  H       1.803533      4.291727      2.915923
  H       1.308793      2.852769      3.654308
  Cu      2.322809      2.292916      1.162397
>
18
Coordinates from ORCA-job orca Relaxed Surface Scan Step 28
  C      -2.984545      1.873397      1.678015
  C      -1.848829      2.630851      1.422075
  C      -0.627268      2.281843      2.000882
  C      -0.552513      1.156407      2.826185
  C      -1.688100      0.401496      3.078768
  C      -2.906815      0.759117      2.506680
  H      -3.929588      2.154464      1.231967
  H      -3.791126      0.167215      2.704067
  H      -1.908040      3.499340      0.777586
  H       0.393405      0.852795      3.259074
  H      -1.622657     -0.469791      3.717252
  C       0.546744      3.138004      1.737241
  N       1.479964      3.343814      2.783757
  H       0.337091      4.034795      1.171139
  H       1.093904      2.365348      0.274989
  H       1.791868      4.296726      2.911964
  H       1.294963      2.861909      3.652794
  Cu      2.344002      2.286728      1.178606
>
18
Coordinates from ORCA-job orca Relaxed Surface Scan Step 29
  C      -2.987614      1.877306      1.684379
  C      -1.851795      2.633489      1.424255
  C      -0.627839      2.280456      1.995228
  C      -0.550859      1.152669      2.817069
  C      -1.686343      0.399119      3.073907
  C      -2.907522      0.760632      2.509468
  H      -3.934572      2.161389      1.244328
  H      -3.791856      0.169830      2.710035
  H      -1.913082      3.504072      0.782799
  H       0.397237      0.846716      3.243596
  H      -1.618972     -0.474126      3.709528
  C       0.547843      3.134070      1.728277
  N       1.477810      3.345604      2.780151
  H       0.337802      4.029706      1.160296
  H       1.105532      2.359535      0.294972
  H       1.779457      4.301988      2.907588
  H       1.280493      2.871534      3.650914
  Cu      2.366739      2.280471      1.196250
>
18
Coordinates from ORCA-job orca Relaxed Surface Scan Step 30
  C      -2.990776      1.881165      1.690774
  C      -1.854892      2.636098      1.426459
  C      -0.628570      2.279082      1.989562
  C      -0.549379      1.148972      2.807954
  C      -1.684739      0.396787      3.069108
  C      -2.908333      0.762135      2.512316
  H      -3.939608      2.168208      1.256707
  H      -3.792668      0.172427      2.716087
  H      -1.918241      3.508747      0.788024
  H       0.400847      0.840743      3.228133
  H      -1.615480     -0.478362      3.701919
  C       0.548756      3.130100      1.719200
  N       1.475952      3.347125      2.776195
  H       0.338212      4.024738      1.149618
  H       1.117429      2.354020      0.315236
  H       1.766787      4.307023      2.903030
  H       1.266382      2.880714      3.648378
  Cu      2.390780      2.274736      1.214340
>
18
Coordinates from ORCA-job orca Relaxed Surface Scan Step 31
  C      -2.993774      1.884222      1.696064
  C      -1.857923      2.638160      1.428136
  C      -0.629581      2.278013      1.984607
  C      -0.548463      1.146120      2.800300
  C      -1.683687      0.395094      3.065323
  C      -2.909295      0.763411      2.514882
  H      -3.944161      2.173556      1.266931
  H      -3.793582      0.174612      2.721497
  H      -1.923049      3.512404      0.792072
  H       0.403511      0.836105      3.215215
  H      -1.612831     -0.481451      3.696041
  C       0.549205      3.126541      1.710736
  N       1.475673      3.347185      2.771644
  H       0.337534      4.021170      1.141323
  H       1.127320      2.351141      0.334632
  H       1.755246      4.310460      2.899052
  H       1.255109      2.887098      3.644642
  Cu      2.415207      2.270618      1.229941
>
18
Coordinates from ORCA-job orca Relaxed Surface Scan Step 32
  C      -2.996610      1.886272      1.699939
  C      -1.860913      2.639548      1.429125
  C      -0.630949      2.277367      1.980558
  C      -0.548205      1.144360      2.794499
  C      -1.683275      0.394199      3.062790
  C      -2.910436      0.764386      2.517063
  H      -3.948186      2.177058      1.274422
  H      -3.794607      0.176243      2.726058
  H      -1.927487      3.514817      0.794618
  H       0.405064      0.833155      3.205535
  H      -1.611140     -0.483127      3.692298
  C       0.549044      3.123558      1.703028
  N       1.477356      3.345434      2.766393
  H       0.335478      4.019419      1.136017
  H       1.134722      2.351520      0.352775
  H       1.745372      4.311857      2.895826
  H       1.247383      2.890093      3.639638
  Cu      2.439850      2.268300      1.242457
>
18
Coordinates from ORCA-job orca Relaxed Surface Scan Step 33
  C      -2.999473      1.887633      1.702891
  C      -1.864022      2.640476      1.429661
  C      -0.632670      2.277007      1.977085
  C      -0.548460      1.143332      2.789913
  C      -1.683364      0.393847      3.061111
  C      -2.911798      0.765154      2.519027
  H      -3.952011      2.179303      1.280120
  H      -3.795805      0.177506      2.730128
  H      -1.931845      3.516387      0.796164
  H       0.405813      0.831343      3.197997
  H      -1.610153     -0.483833      3.690021
  C       0.548313      3.120959      1.695663
  N       1.480496      3.342344      2.760426
  H       0.332253      4.018979      1.132761
  H       1.140768      2.354157      0.370079
  H       1.736620      4.311723      2.893035