18
Coordinates from ORCA-job orca Relaxed Surface Scan Step 1
  C      -2.990909      1.813853      1.613407
  C      -1.907263      2.666906      1.510052
  C      -0.730145      2.403423      2.234397
  C      -0.659666      1.266490      3.061231
  C      -1.747117      0.422589      3.158643
  C      -2.911303      0.692397      2.434686
  H      -3.895532      2.017786      1.056985
  H      -3.757520      0.022380      2.514259
  H      -1.954714      3.540084      0.872035
  H       0.237072      1.037973      3.622017
  H      -1.696141     -0.450610      3.794768
  C       0.347205      3.333425      2.080242
  N       1.522972      3.296040      2.748599
  H       0.163719      4.245635      1.524498
  H       1.760899      2.043542     -0.536671
  H       2.057315      4.155019      2.833821
  H       1.672707      2.625622      3.495349
  Cu      1.910880      2.501906      0.894721
>
18
Coordinates from ORCA-job orca Relaxed Surface Scan Step 2
  C      -2.988921      1.813093      1.611700
  C      -1.904167      2.664640      1.506924
  C      -0.727629      2.401324      2.231983
  C      -0.658544      1.265822      3.060607
  C      -1.747099      0.423314      3.159509
  C      -2.910923      0.693099      2.435113
  H      -3.893172      2.017217      1.054726
  H      -3.757995      0.024323      2.515971
  H      -1.950506      3.536668      0.867243
  H       0.237908      1.036997      3.621751
  H      -1.697096     -0.448772      3.797250
  C       0.350874      3.330769      2.077104
  N       1.524450      3.295627      2.750863
  H       0.166588      4.243492      1.522496
  H       1.740060      2.052248     -0.533802
  H       2.056938      4.155463      2.838306
  H       1.671475      2.625893      3.498675
  Cu      1.910218      2.503243      0.896622
>
18
Coordinates from ORCA-job orca Relaxed Surface Scan Step 3
  C      -2.986820      1.812239      1.609856
  C      -1.901063      2.662438      1.503852
  C      -0.725197      2.399380      2.229784
  C      -0.657529      1.265354      3.060253
  C      -1.747077      0.424065      3.160423
  C      -2.910411      0.693674      2.435346
  H      -3.890665      2.016420      1.052225
  H      -3.758263      0.026016      2.517225
  H      -1.946339      3.533319      0.862526
  H       0.238539      1.036477      3.622013
  H      -1.698058     -0.446893      3.799794
  C       0.354549      3.328167      2.074232
  N       1.525979      3.295016      2.753147
  H       0.170125      4.241409      1.520543
  H       1.718390      2.061235     -0.531075
  H       2.056609      4.155730      2.842529
  H       1.670425      2.626145      3.502136
  Cu      1.909265      2.504269      0.898231
>
18
Coordinates from ORCA-job orca Relaxed Surface Scan Step 4
  C      -2.984673      1.811304      1.607921
  C      -1.897916      2.660153      1.500737
  C      -0.722772      2.397416      2.227658
  C      -0.656589      1.264935      3.060066
  C      -1.747141      0.424879      3.161478
  C      -2.909918      0.694243      2.435589
  H      -3.888055      2.015489      1.049523
  H      -3.758553      0.027709      2.518477
  H      -1.942068      3.529832      0.857691
  H       0.239022      1.036060      3.622575
  H      -1.699170     -0.444880      3.802570
  C       0.358218      3.325530      2.071439
  N       1.527548      3.294275      2.755373
  H       0.173555      4.239319      1.518753
  H       1.696669      2.070838     -0.528450
  H       2.056393      4.155811      2.846706
  H       1.669488      2.626168      3.505424
  Cu      1.908420      2.505381      0.899509
>
18
Coordinates from ORCA-job orca Relaxed Surface Scan Step 5
  C      -2.982485      1.810292      1.605908
  C      -1.894737      2.657802      1.497583
  C      -0.720361      2.395445      2.225588
  C      -0.655714      1.264575      3.060016
  C      -1.747270      0.425753      3.162648
  C      -2.909433      0.694801      2.435837
  H      -3.885360      2.014421      1.046652
  H      -3.758850      0.029390      2.519711
  H      -1.937727      3.526225      0.852754
  H       0.239385      1.035771      3.623392
  H      -1.700393     -0.442745      3.805543
  C       0.361882      3.322882      2.068714
  N       1.529155      3.293401      2.757529
  H       0.176959      4.237283      1.517147
  H       1.674875      2.080940     -0.525871
  H       2.056235      4.155732      2.850851
  H       1.668645      2.625956      3.508531
  Cu      1.907654      2.506536      0.900506
>
18
Coordinates from ORCA-job orca Relaxed Surface Scan Step 6
  C      -2.980254      1.809211      1.603818
  C      -1.891530      2.655399      1.494405
  C      -0.717966      2.393481      2.223584
  C      -0.654898      1.264280      3.060098
  C      -1.747455      0.426682      3.163916
  C      -2.908948      0.695342      2.436071
  H      -3.882579      2.013228      1.043616
  H      -3.759139      0.031045      2.520900
  H      -1.933321      3.522522      0.847740
  H       0.239630      1.035612      3.624457
  H      -1.701712     -0.440501      3.808679
  C       0.365536      3.320236      2.066064
  N       1.530806      3.292409      2.759610
  H       0.180320      4.235304      1.515724
  H       1.652980      2.091452     -0.523288
  H       2.056147      4.155507      2.854952
  H       1.667912      2.625532      3.511454
  Cu      1.906934      2.507719      0.901239
>
18
Coordinates from ORCA-job orca Relaxed Surface Scan Step 7
  C      -2.978024      1.808105      1.601713
  C      -1.888331      2.652976      1.491228
  C      -0.715590      2.391521      2.221604
  C      -0.654108      1.264011      3.060223
  C      -1.747664      0.427635      3.165218
  C      -2.908472      0.695880      2.436310
  H      -3.879786      2.011985      1.040537
  H      -3.759434      0.032694      2.522083
  H      -1.928913      3.518778      0.842708
  H       0.239829      1.035506      3.625602
  H      -1.703066     -0.438210      3.811870
  C       0.369172      3.317596      2.063439
  N       1.532458      3.291362      2.761626
  H       0.183637      4.233359      1.514385
  H       1.631148      2.102169     -0.520557
  H       2.056070      4.155209      2.858996
  H       1.667219      2.625002      3.514251
  Cu      1.906314      2.508884      0.901806
>
18
Coordinates from ORCA-job orca Relaxed Surface Scan Step 8
  C      -2.975846      1.807025      1.599665
  C      -1.885186      2.650574      1.488085
  C      -0.713237      2.389562      2.219599
  C      -0.653309      1.263726      3.060286
  C      -1.747861      0.428574      3.166480
  C      -2.908014      0.696428      2.436569
  H      -3.877070      2.010784      1.037562
  H      -3.759745      0.034358      2.523302
  H      -1.924584      3.515067      0.837737
  H       0.240064      1.035368      3.626635
  H      -1.704380     -0.435948      3.814988
  C       0.372778      3.314962      2.060777
  N       1.534062      3.290328      2.763591
  H       0.186912      4.231410      1.513002
  H       1.609590      2.112862     -0.517527
  H       2.055940      4.154922      2.862961
  H       1.666473      2.624495      3.516998
  Cu      1.905872      2.509961      0.902329
>
18
Coordinates from ORCA-job orca Relaxed Surface Scan Step 9
  C      -2.973735      1.805993      1.597698
  C      -1.882112      2.648215      1.484994
  C      -0.710911      2.387611      2.217561
  C      -0.652488      1.263415      3.060257
  C      -1.748028      0.429487      3.167671
  C      -2.907573      0.696989      2.436846
  H      -3.874455      2.009659      1.034735
  H      -3.760067      0.036034      2.524554
  H      -1.920362      3.511424      0.832863
  H       0.240362      1.035171      3.627498
  H      -1.705625     -0.433744      3.817981
  C       0.376350      3.312340      2.058067
  N       1.535605      3.289335      2.765506
  H       0.190145      4.229450      1.511539
  H       1.588348      2.123418     -0.514140
  H       2.055740      4.154680      2.866834
  H       1.665649      2.624065      3.519722
  Cu      1.905618      2.510919      0.902853
>
18
Coordinates from ORCA-job orca Relaxed Surface Scan Step 10
  C      -2.971681      1.805007      1.595800
  C      -1.879108      2.645912      1.481965
  C      -0.708617      2.385688      2.215514
  C      -0.651649      1.263094      3.060154
  C      -1.748162      0.430375      3.168790
  C      -2.907134      0.697553      2.437120
  H      -3.871925      2.008598      1.032031
  H      -3.760378      0.037698      2.525798
  H      -1.916245      3.507863      0.828097
  H       0.240713      1.034939      3.628220
  H      -1.706793     -0.431603      3.820840
  C       0.379887      3.309744      2.055326
  N       1.537097      3.288385      2.767371
  H       0.193338      4.227492      1.510011
  H       1.567350      2.133795     -0.510394
  H       2.055493      4.154474      2.870599
  H       1.664759      2.623715      3.522424
  Cu      1.905515      2.511729      0.903373
>
18
Coordinates from ORCA-job orca Relaxed Surface Scan Step 11
  C      -2.969660      1.804047      1.593938
  C      -1.876156      2.643658      1.478994
  C      -0.706354      2.383802      2.213484
  C      -0.650805      1.262786      3.060022
  C      -1.748272      0.431249      3.169859
  C      -2.906688      0.698110      2.437375
  H      -3.869442      2.007565      1.029386
  H      -3.760664      0.039332      2.526997
  H      -1.912207      3.504370      0.823423
  H       0.241083      1.034715      3.628885
  H      -1.707909     -0.429499      3.823606
  C       0.383391      3.307184      2.052585
  N       1.538563      3.287456      2.769178
  H       0.196490      4.225558      1.508472
  H       1.546488      2.144041     -0.506334
  H       2.055233      4.154279      2.874257
  H       1.663847      2.623403      3.525072
  Cu      1.905522      2.512406      0.903842
>
18
Coordinates from ORCA-job orca Relaxed Surface Scan Step 12
  C      -2.967653      1.803098      1.592087
  C      -1.873246      2.641451      1.476079
  C      -0.704124      2.381968      2.211499
  C      -0.649972      1.262510      3.059900
  C      -1.748367      0.432122      3.170896
  C      -2.906226      0.698651      2.437593
  H      -3.866971      2.006528      1.026746
  H      -3.760907      0.040914      2.528115
  H      -1.908228      3.500933      0.818826
  H       0.241445      1.034535      3.629560
  H      -1.708987     -0.427416      3.826306
  C       0.386866      3.304666      2.049874
  N       1.540020      3.286530      2.770925
  H       0.199605      4.223661      1.506960
  H       1.525667      2.154203     -0.501998
  H       2.054997      4.154066      2.877802
  H       1.662946      2.623096      3.527651
  Cu      1.905595      2.512945      0.904222
>
18
Coordinates from ORCA-job orca Relaxed Surface Scan Step 13
  C      -2.965669      1.802163      1.590258
  C      -1.870385      2.639290      1.473218
  C      -0.701929      2.380181      2.209547
  C      -0.649144      1.262264      3.059774
  C      -1.748443      0.432992      3.171899
  C      -2.905750      0.699178      2.437784
  H      -3.864527      2.005495      1.024131
  H      -3.761115      0.042451      2.529171
  H      -1.904315      3.497552      0.814305
  H       0.241809      1.034389      3.630220
  H      -1.710021     -0.425356      3.828936
  C       0.390308      3.302188      2.047179
  N       1.541457      3.285609      2.772619
  H       0.202689      4.221794      1.505453
  H       1.504940      2.164305     -0.497388
  H       2.054779      4.153834      2.881233
  H       1.662033      2.622803      3.530173
  Cu      1.905744      2.513330      0.904527
>
18
Coordinates from ORCA-job orca Relaxed Surface Scan Step 14
  C      -2.963749      1.801268      1.588502
  C      -1.867597      2.637174      1.470409
  C      -0.699768      2.378413      2.207570
  C      -0.648301      1.262006      3.059572
  C      -1.748492      0.433841      3.172846
  C      -2.905288      0.699711      2.437994
  H      -3.862177      2.004517      1.021645
  H      -3.761324      0.043985      2.530254
  H      -1.900514      3.494235      0.809871
  H       0.242224      1.034206      3.630735
  H      -1.710986     -0.423345      3.831463
  C       0.393718      3.299727      2.044443
  N       1.542827      3.284717      2.774274
  H       0.205753      4.219913      1.503857
  H       1.484549      2.174355     -0.492474
  H       2.054521      4.153616      2.884557
  H       1.661018      2.622579      3.532689
  Cu      1.906043      2.513541      0.904833
>
18
Coordinates from ORCA-job orca Relaxed Surface Scan Step 15
  C      -2.961978      1.800480      1.586933
  C      -1.864945      2.635131      1.467669
  C      -0.697640      2.376629      2.205465
  C      -0.647389      1.261659      3.059134
  C      -1.748474      0.434626      3.173660
  C      -2.904872      0.700285      2.438286
  H      -3.860065      2.003723      1.019514
  H      -3.761587      0.045583      2.531502
  H      -1.896929      3.491045      0.805586
  H       0.242812      1.033841      3.630816
  H      -1.711795     -0.421465      3.833759
  C       0.397087      3.297252      2.041554
  N       1.544036      3.283927      2.775923
  H       0.208812      4.217939      1.501966
  H       1.464921      2.184211     -0.487144
  H       2.054102      4.153507      2.887774
  H       1.659723      2.622586      3.535320
  Cu      1.906640      2.513500      0.905322
>
18
Coordinates from ORCA-job orca Relaxed Surface Scan Step 16
  C      -2.960382      1.799816      1.585585
  C      -1.862444      2.633154      1.464988
  C      -0.695544      2.374802      2.203187
  C      -0.646393      1.261193      3.058411
  C      -1.748384      0.435335      3.174331
  C      -2.904521      0.700917      2.438697
  H      -3.858235      2.003150      1.017809
  H      -3.761932      0.047282      2.532989
  H      -1.893586      3.487978      0.801446
  H       0.243607      1.033246      3.630378
  H      -1.712436     -0.419728      3.835813
  C       0.400414      3.294742      2.038467
  N       1.545054      3.283245      2.777572
  H       0.211868      4.215846      1.499726
  H       1.446239      2.193897     -0.481405
  H       2.053472      4.153523      2.890900
  H       1.658078      2.622851      3.538095
  Cu      1.907584      2.513213      0.906050
>
18
Coordinates from ORCA-job orca Relaxed Surface Scan Step 17
  C      -2.958966      1.799280      1.584463
  C      -1.860095      2.631247      1.462368
  C      -0.693476      2.372930      2.200730
  C      -0.645307      1.260600      3.057393
  C      -1.748216      0.435964      3.174854
  C      -2.904233      0.701608      2.439229
  H      -3.856695      2.002810      1.016543
  H      -3.762358      0.049088      2.534721
  H      -1.890490      3.485044      0.797459
  H       0.244618      1.032409      3.629403
  H      -1.712900     -0.418145      3.837614
  C       0.403702      3.292193      2.035175
  N       1.545874      3.282679      2.779225
  H       0.214921      4.213625      1.497124
  H       1.428526      2.203387     -0.475267
  H       2.052620      4.153675      2.893937
  H       1.656066      2.623394      3.541029
  Cu      1.908869      2.512671      0.907041
>
18
Coordinates from ORCA-job orca Relaxed Surface Scan Step 18
  C      -2.957704      1.798857      1.583538
  C      -1.857882      2.629404      1.459804
  C      -0.691439      2.371023      2.198121
  C      -0.644145      1.259900      3.056122
  C      -1.747978      0.436524      3.175247
  C      -2.903998      0.702350      2.439864
  H      -3.855407      2.002672      1.015660
  H      -3.762851      0.050981      2.536660
  H      -1.887615      3.482232      0.793609
  H       0.245814      1.031369      3.627969
  H      -1.713206     -0.416693      3.839196
  C       0.406953      3.289612      2.031706
  N       1.546521      3.282209      2.780874
  H       0.217967      4.211298      1.494213
  H       1.411678      2.212707     -0.468775
  H       2.051574      4.153941      2.896888
  H       1.653730      2.624176      3.544087
  Cu      1.910451      2.511898      0.908258
>
18
Coordinates from ORCA-job orca Relaxed Surface Scan Step 19
  C      -2.956572      1.798533      1.582781
  C      -1.855787      2.627625      1.457294
  C      -0.689429      2.369095      2.195389
  C      -0.642918      1.259115      3.054639
  C      -1.747676      0.437023      3.175527
  C      -2.903801      0.703133      2.440579
  H      -3.854329      2.002708      1.015100
  H      -3.763388      0.052942      2.538761
  H      -1.884934      3.479536      0.789888
  H       0.247166      1.030163      3.626149
  H      -1.713370     -0.415360      3.840581
  C       0.410170      3.287011      2.028093
  N       1.547015      3.281824      2.782514
  H       0.221004      4.208888      1.491046
  H       1.395563      2.221857     -0.461961
  H       2.050365      4.154302      2.899752
  H       1.651108      2.625166      3.547247
  Cu      1.912273      2.510899      0.909662
>
18
Coordinates from ORCA-job orca Relaxed Surface Scan Step 20
  C      -2.955542      1.798290      1.582156
  C      -1.853791      2.625906      1.454837
  C      -0.687446      2.367157      2.192571
  C      -0.641641      1.258266      3.052991
  C      -1.747320      0.437474      3.175711
  C      -2.903628      0.703944      2.441350
  H      -3.853417      2.002884      1.014793
  H      -3.763949      0.054946      2.540972
  H      -1.882413      3.476946      0.786286
  H       0.248639      1.028834      3.624032
  H      -1.713416     -0.414126      3.841801
  C       0.413356      3.284401      2.024374
  N       1.547383      3.281509      2.784140
  H       0.224029      4.206419      1.487685
  H       1.380038      2.230848     -0.454859
  H       2.049030      4.154738      2.902528
  H       1.648261      2.626324      3.550471
  Cu      1.914286      2.509698      0.911201
>
18
Coordinates from ORCA-job orca Relaxed Surface Scan Step 21
  C      -2.954579      1.798107      1.581620
  C      -1.851869      2.624245      1.452434
  C      -0.685490      2.365231      2.189712
  C      -0.640334      1.257386      3.051244
  C      -1.746921      0.437890      3.175823
  C      -2.903461      0.704768      2.442142
  H      -3.852610      2.003154      1.014652
  H      -3.764507      0.056960      2.543224
  H      -1.880013      3.474451      0.782789
  H       0.250187      1.027438      3.621731
  H      -1.713370     -0.412967      3.842892
  C       0.416513      3.281799      2.020597
  N       1.547661      3.281247      2.785742
  H       0.227036      4.203922      1.484205
  H       1.364912      2.239692     -0.447503
  H       2.047621      4.155222      2.905209
  H       1.645264      2.627601      3.553716
  Cu      1.916419      2.508316      0.912811
>
18
Coordinates from ORCA-job orca Relaxed Surface Scan Step 22
  C      -2.953654      1.797967      1.581137
  C      -1.850005      2.622648      1.450092
  C      -0.683564      2.363340      2.186856
  C      -0.639011      1.256501      3.049445
  C      -1.746484      0.438279      3.175874
  C      -2.903281      0.705589      2.442921
  H      -3.851864      2.003487      1.014607
  H      -3.765035      0.058951      2.545449
  H      -1.877707      3.472053      0.779400
  H       0.251775      1.026020      3.619331
  H      -1.713249     -0.411872      3.843870
  C       0.419642      3.279223      2.016803
  N       1.547880      3.281030      2.787312
  H       0.230024      4.201425      1.480666
  H       1.350018      2.248360     -0.439903
  H       2.046181      4.155738      2.907786
  H       1.642178      2.628968      3.556951
  Cu      1.918615      2.506754      0.914443
>
18
Coordinates from ORCA-job orca Relaxed Surface Scan Step 23
  C      -2.952742      1.797854      1.580676
  C      -1.848181      2.621108      1.447807
  C      -0.681665      2.361494      2.184035
  C      -0.637688      1.255633      3.047640
  C      -1.746021      0.438654      3.175885
  C      -2.903080      0.706395      2.443666
  H      -3.851137      2.003847      1.014593
  H      -3.765516      0.060895      2.547600
  H      -1.875464      3.469741      0.776106
  H       0.253368      1.024624      3.616919
  H      -1.713079     -0.410819      3.844769
  C       0.422744      3.276685      2.013029
  N       1.548065      3.280843      2.788840
  H       0.232987      4.198953      1.477128
  H       1.335222      2.256867     -0.432080
  H       2.044746      4.156266      2.910256
  H       1.639070      2.630376      3.560133
  Cu      1.920833      2.505043      0.916039
>
18
Coordinates from ORCA-job orca Relaxed Surface Scan Step 24
  C      -2.951698      1.797826      1.580108
  C      -1.846341      2.619852      1.445732
  C      -0.679771      2.359896      2.181497
  C      -0.636343      1.254841      3.045955
  C      -1.745411      0.438921      3.175665
  C      -2.902663      0.707099      2.444050
  H      -3.850235      2.004259      1.014397
  H      -3.765686      0.062565      2.549101
  H      -1.873245      3.467853      0.773209
  H       0.254956      1.023362      3.614686
  H      -1.712747     -0.410026      3.845242
  C       0.425697      3.274409      2.009687
  N       1.548214      3.280975      2.790538
  H       0.236058      4.196382      1.473324
  H       1.319089      2.264435     -0.423691
  H       2.043770      4.156916      2.912242
  H       1.636217      2.632344      3.563635
  Cu      1.922599      2.502548      0.917663
>
18
Coordinates from ORCA-job orca Relaxed Surface Scan Step 25
  C      -2.950898      1.797686      1.579733
  C      -1.844627      2.618256      1.443472
  C      -0.677977      2.358031      2.178657
  C      -0.635087      1.254027      3.044155
  C      -1.745034      0.439360      3.175772
  C      -2.902567      0.707913      2.444932
  H      -3.849623      2.004584      1.014471
  H      -3.766261      0.064521      2.551436
  H      -1.871109      3.465423      0.769864
  H       0.256472      1.021981      3.612280
  H      -1.712615     -0.408867      3.846285
  C       0.428845      3.271808      2.005684
  N       1.548392      3.280619      2.791780
  H       0.238803      4.194178      1.470220
  H       1.305456      2.273101     -0.415634
  H       2.042066      4.157367      2.914748
  H       1.633013      2.633298      3.566253
  Cu      1.925212      2.501173      0.918934
>
18
Coordinates from ORCA-job orca Relaxed Surface Scan Step 26
  C      -2.949853      1.797743      1.579192
  C      -1.842856      2.617188      1.441578
  C      -0.676137      2.356582      2.176266
  C      -0.633739      1.253280      3.042481
  C      -1.744352      0.439570      3.175413
  C      -2.902073      0.708568      2.445166
  H      -3.848716      2.005084      1.014297
  H      -3.766289      0.066038      2.552637
  H      -1.869000      3.463799      0.767247
  H       0.258083      1.020756      3.610020
  H      -1.712161     -0.408236      3.846480
  C       0.431750      3.269654      2.002438
  N       1.548533      3.280899      2.793388
  H       0.241853      4.191653      1.466381
  H       1.289160      2.279922     -0.406678
  H       2.041119      4.158156      2.916527
  H       1.630217      2.635479      3.569678
  Cu      1.926923      2.498327      0.920531
>
18
Coordinates from ORCA-job orca Relaxed Surface Scan Step 27
  C      -2.948915      1.797725      1.578717
  C      -1.841150      2.615964      1.439628
  C      -0.674370      2.355033      2.173806
  C      -0.632478      1.252564      3.040837
  C      -1.743819      0.439877      3.175241
  C      -2.901735      0.709251      2.445609
  H      -3.847910      2.005497      1.014174
  H      -3.766497      0.067638      2.554152
  H      -1.866923      3.461913      0.764438
  H       0.259570      1.019525      3.607836
  H      -1.711848     -0.407406      3.846990
  C       0.434744      3.267349      1.998911
  N       1.548691      3.280933      2.794733
  H       0.244641      4.189365      1.463047
  H       1.274109      2.287268     -0.397793
  H       2.039863      4.158819      2.918456
  H       1.627362      2.637055      3.572520
  Cu      1.929123      2.496088      0.921738
>
18
Coordinates from ORCA-job orca Relaxed Surface Scan Step 28
  C      -2.947975      1.797748      1.578249
  C      -1.839486      2.614846      1.437784
  C      -0.672643      2.353577      2.171443
  C      -0.631221      1.251882      3.039212
  C      -1.743247      0.440150      3.174991
  C      -2.901351      0.709898      2.445959
  H      -3.847096      2.005945      1.014046
  H      -3.766617      0.069133      2.555480
  H      -1.864907      3.460176      0.761789
  H       0.261066      1.018334      3.605654
  H      -1.711468     -0.406674      3.847339
  C       0.437702      3.265126      1.995454
  N       1.548859      3.281046      2.796030
  H       0.247473      4.187103      1.459662
  H       1.258913      2.294210     -0.388605
  H       2.038661      4.159545      2.920254
  H       1.624550      2.638763      3.575342
  Cu      1.931248      2.493650      0.922957
>
18
Coordinates from ORCA-job orca Relaxed Surface Scan Step 29
  C      -2.947048      1.797809      1.577799
  C      -1.837863      2.613810      1.436028
  C      -0.670949      2.352182      2.169155
  C      -0.629975      1.251213      3.037600
  C      -1.742661      0.440395      3.174684
  C      -2.900950      0.710523      2.446249
  H      -3.846290      2.006435      1.013931
  H      -3.766693      0.070562      2.556680
  H      -1.862946      3.458551      0.759270
  H       0.262554      1.017140      3.603469
  H      -1.711053     -0.406017      3.847570
  C       0.440631      3.262945      1.992039
  N       1.549018      3.281234      2.797282
  H       0.250253      4.184852      1.456276
  H       1.243732      2.300823     -0.379137
  H       2.037473      4.160342      2.921927
  H       1.621799      2.640555      3.578101
  Cu      1.933428      2.491107      0.924117
>
18
Coordinates from ORCA-job orca Relaxed Surface Scan Step 30
  C      -2.946168      1.797928      1.577413
  C      -1.836301      2.612851      1.434359
  C      -0.669288      2.350819      2.166894
  C      -0.628722      1.250520      3.035937
  C      -1.742052      0.440594      3.174302
  C      -2.900551      0.711140      2.446519
  H      -3.845550      2.007011      1.013919
  H      -3.766756      0.071958      2.557830
  H      -1.861076      3.457044      0.756891
  H       0.264074      1.015885      3.601179
  H      -1.710582     -0.405458      3.847658
  C       0.443532      3.260786      1.988616
  N       1.549123      3.281515      2.798496
  H       0.253008      4.182578      1.452811
  H       1.228791      2.307144     -0.369387
  H       2.036238      4.161236      2.923473
  H       1.619016      2.642480      3.580834
  Cu      1.935723      2.488429      0.925296
>
18
Coordinates from ORCA-job orca Relaxed Surface Scan Step 31
  C      -2.945387      1.798157      1.577167
  C      -1.834845      2.612005      1.432805
  C      -0.667662      2.349476      2.164604
  C      -0.627426      1.249750      3.034121
  C      -1.741390      0.440709      3.173783
  C      -2.900171      0.711769      2.446799
  H      -3.844963      2.007768      1.014162
  H      -3.766828      0.073356      2.558998
  H      -1.859373      3.455723      0.754721
  H       0.265707      1.014461      3.598585
  H      -1.709991     -0.405072      3.847493
  C       0.446398      3.258633      1.985122
  N       1.549108      3.281958      2.799694
  H       0.255755      4.180218      1.449110
  H       1.214353      2.313026     -0.359283
  H       2.034882      4.162311      2.924862
  H       1.616069      2.644693      3.583642
  Cu      1.938223      2.485518      0.926656
>
18
Coordinates from ORCA-job orca Relaxed Surface Scan Step 32
  C      -2.944760      1.798553      1.577146
  C      -1.833535      2.611300      1.431391
  C      -0.666071      2.348127      2.162217
  C      -0.626047      1.248834      3.032030
  C      -1.740643      0.440699      3.173060
  C      -2.899831      0.712435      2.447130
  H      -3.844625      2.008814      1.014827
  H      -3.766940      0.074806      2.560275
  H      -1.857911      3.454648      0.752825
  H       0.267541      1.012742      3.595468
  H      -1.709216     -0.404934      3.846966
  C       0.449228      3.256467      1.981479
  N       1.548898      3.282640      2.800902
  H       0.258512      4.177706      1.445016
  H       1.200715      2.318319     -0.348763
  H       2.033305      4.163662      2.926074
  H       1.612809      2.647361      3.586628
  Cu      1.941030      2.482283      0.928370
>
18
Coordinates from ORCA-job orca Relaxed Surface Scan Step 33
  C      -2.944328      1.799164      1.577416
  C      -1.832403      2.610772      1.430143
  C      -0.664513      2.346762      2.159688
  C      -0.624549      1.247723      3.029569
  C      -1.739780      0.440526      3.172072
  C      -2.899538      0.713153      2.447535
  H      -3.844606      2.010237      1.016044
  H      -3.767106      0.076336      2.561713
  H      -1.856751      3.453887      0.751271
  H       0.269647      1.010621      3.591649
  H      -1.708198     -0.405115      3.845973
  C       0.452020      3.254278      1.977635
  N       1.548434      3.283628      2.802142
  H       0.261295      4.174996      1.440400
  H       1.188075      2.322858     -0.337767
  H       2.031442      4.165370      2.927079