18
Properties=species:S:1:pos:R:3 Coordinates=T from=T ORCA-job=T orca=T energy=-1967.143365032044 pbc="F F F"
C       -2.99090916       1.81385268       1.61340685
C       -1.90726333       2.66690599       1.51005242
C       -0.73014461       2.40342265       2.23439663
C       -0.65966560       1.26649026       3.06123063
C       -1.74711712       0.42258892       3.15864329
C       -2.91130266       0.69239741       2.43468633
H       -3.89553244       2.01778633       1.05698538
H       -3.75751957       0.02237997       2.51425872
H       -1.95471352       3.54008372       0.87203501
H        0.23707206       1.03797287       3.62201737
H       -1.69614085      -0.45060986       3.79476840
C        0.34720460       3.33342550       2.08024186
N        1.52297198       3.29604007       2.74859892
H        0.16371949       4.24563504       1.52449795
H        1.76089922       2.04354186      -0.53667079
H        2.05731492       4.15501933       2.83382139
H        1.67270706       2.62562170       3.49534893
Cu       1.91087953       2.50190557       0.89472070
18
Properties=species:S:1:pos:R:3 Coordinates=T from=T ORCA-job=T orca=T energy=-1967.143360030899 pbc="F F F"
C       -2.98892133       1.81309297       1.61170039
C       -1.90416692       2.66463992       1.50692381
C       -0.72762892       2.40132399       2.23198349
C       -0.65854376       1.26582195       3.06060690
C       -1.74709935       0.42331405       3.15950902
C       -2.91092263       0.69309877       2.43511264
H       -3.89317183       2.01721697       1.05472560
H       -3.75799479       0.02432265       2.51597074
H       -1.95050569       3.53666783       0.86724288
H        0.23790829       1.03699652       3.62175107
H       -1.69709605      -0.44877195       3.79725007
C        0.35087362       3.33076886       2.07710358
N        1.52445026       3.29562728       2.75086341
H        0.16658761       4.24349250       1.52249564
H        1.74006016       2.05224824      -0.53380236
H        2.05693845       4.15546348       2.83830561
H        1.67147479       2.62589283       3.49867544
Cu       1.91021808       2.50324314       0.89662208
18
Properties=species:S:1:pos:R:3 Coordinates=T from=T ORCA-job=T orca=T energy=-1967.143346691326 pbc="F F F"
C       -2.98682039       1.81223884       1.60985563
C       -1.90106340       2.66243762       1.50385184
C       -0.72519683       2.39938005       2.22978431
C       -0.65752875       1.26535396       3.06025320
C       -1.74707666       0.42406482       3.16042282
C       -2.91041053       0.69367352       2.43534588
H       -3.89066505       2.01642003       1.05222465
H       -3.75826330       0.02601604       2.51722545
H       -1.94633866       3.53331941       0.86252559
H        0.23853878       1.03647716       3.62201299
H       -1.69805762      -0.44689255       3.79979417
C        0.35454921       3.32816703       2.07423201
N        1.52597866       3.29501612       2.75314704
H        0.17012519       4.24140903       1.52054343
H        1.71839015       2.06123480      -0.53107500
H        2.05660895       4.15572978       2.84252852
H        1.67042506       2.62614487       3.50213638
Cu       1.90926518       2.50426948       0.89823110
18
Properties=species:S:1:pos:R:3 Coordinates=T from=T ORCA-job=T orca=T energy=-1967.143324637468 pbc="F F F"
C       -2.98467329       1.81130415       1.60792120
C       -1.89791577       2.66015329       1.50073670
C       -0.72277199       2.39741557       2.22765839
C       -0.65658940       1.26493481       3.06006620
C       -1.74714083       0.42487898       3.16147769
C       -2.90991771       0.69424334       2.43558924
H       -3.88805481       2.01548888       1.04952305
H       -3.75855280       0.02770865       2.51847707
H       -1.94206800       3.52983154       0.85769121
H        0.23902229       1.03605962       3.62257524
H       -1.69916984      -0.44488039       3.80257047
C        0.35821816       3.32552974       2.07143907
N        1.52754814       3.29427549       2.75537260
H        0.17355506       4.23931856       1.51875267
H        1.69666941       2.07083805      -0.52844959
H        2.05639318       4.15581070       2.84670594
H        1.66948835       2.62616772       3.50542399
Cu       1.90841987       2.50538130       0.89950886
18
Properties=species:S:1:pos:R:3 Coordinates=T from=T ORCA-job=T orca=T energy=-1967.143293860487 pbc="F F F"
C       -2.98248496       1.81029223       1.60590825
C       -1.89473716       2.65780235       1.49758334
C       -0.72036136       2.39544468       2.22558774
C       -0.65571367       1.26457526       3.06001577
C       -1.74727043       0.42575321       3.16264817
C       -2.90943331       0.69480098       2.43583656
H       -3.88535987       2.01442116       1.04665240
H       -3.75884994       0.02938983       2.51971122
H       -1.93772677       3.52622502       0.85275414
H        0.23938460       1.03577068       3.62339197
H       -1.70039304      -0.44274468       3.80554296
C        0.36188210       3.32288186       2.06871436
N        1.52915544       3.29340079       2.75752926
H        0.17695880       4.23728257       1.51714731
H        1.67487516       2.08094045      -0.52587131
H        2.05623516       4.15573190       2.85085118
H        1.66864537       2.62595601       3.50853071
Cu       1.90765388       2.50653571       0.90050599
18
Properties=species:S:1:pos:R:3 Coordinates=T from=T ORCA-job=T orca=T energy=-1967.143254258958 pbc="F F F"
C       -2.98025424       1.80921121       1.60381847
C       -1.89153016       2.65539929       1.49440542
C       -0.71796647       2.39348103       2.22358377
C       -0.65489768       1.26427958       3.06009844
C       -1.74745525       0.42668194       3.16391615
C       -2.90894838       0.69534196       2.43607124
H       -3.88257935       2.01322791       1.04361644
H       -3.75913942       0.03104483       2.52090026
H       -1.93332115       3.52252172       0.84773972
H        0.23963000       1.03561172       3.62445651
H       -1.70171216      -0.44050076       3.80867881
C        0.36553641       3.32023630       2.06606385
N        1.53080566       3.29240898       2.75960964
H        0.18031952       4.23530448       1.51572383
H        1.65298020       2.09145182      -0.52328764
H        2.05614665       4.15550667       2.85495213
H        1.66791194       2.62553243       3.51145397
Cu       1.90693389       2.50771888       0.90123899
18
Properties=species:S:1:pos:R:3 Coordinates=T from=T ORCA-job=T orca=T energy=-1967.143205691091 pbc="F F F"
C       -2.97802354       1.80810469       1.60171274
C       -1.88833059       2.65297614       1.49122819
C       -0.71558976       2.39152093       2.22160376
C       -0.65410831       1.26401062       3.06022309
C       -1.74766430       0.42763473       3.16521837
C       -2.90847218       0.69587968       2.43630967
H       -3.87978582       2.01198483       1.04053675
H       -3.75943390       0.03269409       2.52208297
H       -1.92891312       3.51877771       0.84270773
H        0.23982927       1.03550622       3.62560162
H       -1.70306583      -0.43821011       3.81186997
C        0.36917192       3.31759606       2.06343882
N        1.53245758       3.29136161       2.76162595
H        0.18363715       4.23335918       1.51438499
H        1.63114830       2.10216881      -0.52055735
H        2.05607025       4.15520904       2.85899603
H        1.66721871       2.62500202       3.51425103
Cu       1.90631415       2.50888375       0.90180568
18
Properties=species:S:1:pos:R:3 Coordinates=T from=T ORCA-job=T orca=T energy=-1967.143147915257 pbc="F F F"
C       -2.97584588       1.80702535       1.59966527
C       -1.88518633       2.65057438       1.48808501
C       -0.71323723       2.38956207       2.21959864
C       -0.65330946       1.26372594       3.06028637
C       -1.74786054       0.42857438       3.16647990
C       -2.90801425       0.69642798       2.43656865
H       -3.87706967       2.01078443       1.03756221
H       -3.75974477       0.03435781       2.52330211
H       -1.92458411       3.51506729       0.83773715
H        0.24006412       1.03536799       3.62663533
H       -1.70437964      -0.43594772       3.81498812
C        0.37277767       3.31496158       2.06077749
N        1.53406157       3.29032753       2.76359062
H        0.18691249       4.23141010       1.51300213
H        1.60959017       2.11286243      -0.51752746
H        2.05594047       4.15492221       2.86296138
H        1.66647339       2.62449505       3.51699806
Cu       1.90587199       2.50996121       0.90232900
18
Properties=species:S:1:pos:R:3 Coordinates=T from=T ORCA-job=T orca=T energy=-1967.143080696133 pbc="F F F"
C       -2.97373506       1.80599320       1.59769790
C       -1.88211217       2.64821514       1.48499388
C       -0.71091122       2.38761110       2.21756114
C       -0.65248822       1.26341490       3.06025718
C       -1.74802829       0.42948700       3.16767127
C       -2.90757279       0.69698872       2.43684552
H       -3.87445489       2.00965870       1.03473512
H       -3.76006725       0.03603388       2.52455440
H       -1.92036179       3.51142413       0.83286301
H        0.24036166       1.03517062       3.62749796
H       -1.70562474      -0.43374422       3.81798101
C        0.37634966       3.31233983       2.05806721
N        1.53560488       3.28933547       2.76550617
H        0.19014496       4.22945021       1.51153905
H        1.58834754       2.12341756      -0.51413980
H        2.05574011       4.15467955       2.86683376
H        1.66564946       2.62406537       3.51972222
Cu       1.90561817       2.51091884       0.90285299
18
Properties=species:S:1:pos:R:3 Coordinates=T from=T ORCA-job=T orca=T energy=-1967.143003865668 pbc="F F F"
C       -2.97168109       1.80500703       1.59579979
C       -1.87910760       2.64591209       1.48196528
C       -0.70861697       2.38568779       2.21551350
C       -0.65164851       1.26309450       3.06015418
C       -1.74816192       0.43037463       3.16879013
C       -2.90713406       0.69755308       2.43712035
H       -3.87192542       2.00859765       1.03203106
H       -3.76037815       0.03769808       2.52579825
H       -1.91624500       3.50786336       0.82809715
H        0.24071255       1.03493939       3.62822037
H       -1.70679309      -0.43160256       3.82084048
C        0.37988664       3.30974429       2.05532569
N        1.53709728       3.28838502       2.76737094
H        0.19333827       4.22749237       1.51001054
H        1.56735012       2.13379484      -0.51039395
H        2.05549265       4.15447403       2.87059948
H        1.66475883       2.62371548       3.52242366
Cu       1.90551549       2.51172892       0.90337311
18
Properties=species:S:1:pos:R:3 Coordinates=T from=T ORCA-job=T orca=T energy=-1967.142917351783 pbc="F F F"
C       -2.96966024       1.80404703       1.59393798
C       -1.87615607       2.64365807       1.47899413
C       -0.70635394       2.38380227       2.21348391
C       -0.65080537       1.26278569       3.06002203
C       -1.74827222       0.43124926       3.16985869
C       -2.90668838       0.69811023       2.43737459
H       -3.86944185       2.00756492       1.02938584
H       -3.76066367       0.03933188       2.52699730
H       -1.91220701       3.50436982       0.82342264
H        0.24108294       1.03471497       3.62888471
H       -1.70790854      -0.42949940       3.82360558
C        0.38339138       3.30718361       2.05258543
N        1.53856305       3.28745577       2.76917814
H        0.19648981       4.22555754       1.50847165
H        1.54648826       2.14404100      -0.50633403
H        2.05523295       4.15427857       2.87425738
H        1.66384709       2.62340296       3.52507219
Cu       1.90552182       2.51240582       0.90384184
18
Properties=species:S:1:pos:R:3 Coordinates=T from=T ORCA-job=T orca=T energy=-1967.142821146086 pbc="F F F"
C       -2.96765329       1.80309763       1.59208709
C       -1.87324644       2.64145071       1.47607892
C       -0.70412438       2.38196770       2.21149894
C       -0.64997162       1.26251007       3.05989953
C       -1.74836678       0.43212192       3.17089577
C       -2.90622563       0.69865057       2.43759251
H       -3.86697104       2.00652832       1.02674596
H       -3.76090713       0.04091408       2.52811497
H       -1.90822755       3.50093280       0.81882604
H        0.24144507       1.03453520       3.62955986
H       -1.70898699      -0.42741628       3.82630566
C        0.38686573       3.30466623       2.04987354
N        1.54002049       3.28652990       2.77092520
H        0.19960476       4.22366118       1.50696010
H        1.52566708       2.15420322      -0.50199837
H        2.05499688       4.15406573       2.87780213
H        1.66294595       2.62309566       3.52765063
Cu       1.90559489       2.51294535       0.90422151
18
Properties=species:S:1:pos:R:3 Coordinates=T from=T ORCA-job=T orca=T energy=-1967.142715338913 pbc="F F F"
C       -2.96566879       1.80216292       1.59025758
C       -1.87038458       2.63928964       1.47321780
C       -0.70192949       2.38018068       2.20954688
C       -0.64914397       1.26226363       3.05977398
C       -1.74844327       0.43299156       3.17189911
C       -2.90575040       0.69917783       2.43778419
H       -3.86452655       2.00549466       1.02413064
H       -3.76111473       0.04245125       2.52917098
H       -1.90431530       3.49755164       0.81430512
H        0.24180853       1.03438898       3.63022021
H       -1.71002135      -0.42535624       3.82893629
C        0.39030838       3.30218846       2.04717946
N        1.54145727       3.28560941       2.77261879
H        0.20268884       4.22179351       1.50545349
H        1.50493963       2.16430474      -0.49738763
H        2.05477948       4.15383433       2.88123274
H        1.66203257       2.62280275       3.53017316
Cu       1.90574373       2.51333024       0.90452719
18
Properties=species:S:1:pos:R:3 Coordinates=T from=T ORCA-job=T orca=T energy=-1967.142599914657 pbc="F F F"
C       -2.96374899       1.80126802       1.58850224
C       -1.86759693       2.63717391       1.47040896
C       -0.69976750       2.37841274       2.20757006
C       -0.64830074       1.26200622       3.05957202
C       -1.74849212       0.43384123       3.17284611
C       -2.90528769       0.69971097       2.43799350
H       -3.86217712       2.00451666       1.02164464
H       -3.76132436       0.04398499       2.53025409
H       -1.90051409       3.49423489       0.80987114
H        0.24222445       1.03420617       3.63073508
H       -1.71098580      -0.42334500       3.83146311
C        0.39371846       3.29972718       2.04444316
N        1.54282727       3.28471700       2.77427368
H        0.20575297       4.21991314       1.50385708
H        1.48454938       2.17435488      -0.49247405
H        2.05452146       4.15361645       2.88455734
H        1.66101810       2.62257907       3.53268923
Cu       1.90604326       2.51354148       0.90483260
18
Properties=species:S:1:pos:R:3 Coordinates=T from=T ORCA-job=T orca=T energy=-1967.142474663273 pbc="F F F"
C       -2.96197753       1.80048043       1.58693322
C       -1.86494546       2.63513131       1.46766897
C       -0.69764044       2.37662875       2.20546550
C       -0.64738880       1.26165946       3.05913409
C       -1.74847414       0.43462569       3.17365999
C       -2.90487156       0.70028525       2.43828582
H       -3.86006457       2.00372319       1.01951397
H       -3.76158673       0.04558281       2.53150208
H       -1.89692935       3.49104466       0.80558631
H        0.24281238       1.03384112       3.63081592
H       -1.71179511      -0.42146468       3.83375944
C        0.39708651       3.29725213       2.04155387
N        1.54403594       3.28392674       2.77592252
H        0.20881230       4.21793949       1.50196648
H        1.46492132       2.18421079      -0.48714377
H        2.05410211       4.15350674       2.88777370
H        1.65972277       2.62258584       3.53532019
Cu       1.90664036       2.51350025       0.90532171
18
Properties=species:S:1:pos:R:3 Coordinates=T from=T ORCA-job=T orca=T energy=-1967.14233923332 pbc="F F F"
C       -2.96038235       1.79981552       1.58558471
C       -1.86244425       2.63315419       1.46498823
C       -0.69554373       2.37480181       2.20318736
C       -0.64639275       1.26119306       3.05841139
C       -1.74838386       0.43533471       3.17433118
C       -2.90452064       0.70091703       2.43869729
H       -3.85823520       2.00314994       1.01780880
H       -3.76193170       0.04728206       2.53298929
H       -1.89358629       3.48797777       0.80144636
H        0.24360716       1.03324553       3.63037779
H       -1.71243614      -0.41972829       3.83581314
C        0.40041409       3.29474179       2.03846663
N        1.54505375       3.28324522       2.77757188
H        0.21186810       4.21584554       1.49972632
H        1.44623910       2.19389669      -0.48140521
H        2.05347236       4.15352285       2.89089976
H        1.65807831       2.62285115       3.53809548
Cu       1.90758405       2.51321343       0.90604958
18
Properties=species:S:1:pos:R:3 Coordinates=T from=T ORCA-job=T orca=T energy=-1967.142193234969 pbc="F F F"
C       -2.95896581       1.79927989       1.58446296
C       -1.86009535       2.63124722       1.46236833
C       -0.69347636       2.37293011       2.20072987
C       -0.64530701       1.26060037       3.05739347
C       -1.74821559       0.43596383       3.17485365
C       -2.90423311       0.70160833       2.43922922
H       -3.85669537       2.00280967       1.01654348
H       -3.76235850       0.04908751       2.53472101
H       -1.89049050       3.48504406       0.79745861
H        0.24461839       1.03240892       3.62940288
H       -1.71289964      -0.41814451       3.83761383
C        0.40370189       3.29219342       2.03517477
N        1.54587403       3.28267896       2.77922493
H        0.21492109       4.21362528       1.49712352
H        1.42852606       2.20338662      -0.47526724
H        2.05262032       4.15367527       2.89393667
H        1.65606626       2.62339419       3.54102860
Cu       1.90886919       2.51267086       0.90704145
18
Properties=species:S:1:pos:R:3 Coordinates=T from=T ORCA-job=T orca=T energy=-1967.142036262714 pbc="F F F"
C       -2.95770419       1.79885710       1.58353824
C       -1.85788208       2.62940437       1.45980365
C       -0.69143883       2.37102315       2.19812080
C       -0.64414516       1.25990047       3.05612233
C       -1.74797834       0.43652356       3.17524741
C       -2.90399831       0.70235045       2.43986434
H       -3.85540679       2.00267179       1.01565988
H       -3.76285104       0.05098120       2.53666029
H       -1.88761532       3.48223210       0.79360858
H        0.24581394       1.03136865       3.62796906
H       -1.71320646      -0.41669327       3.83919567
C        0.40695268       3.28961207       2.03170604
N        1.54652093       3.28220887       2.78087355
H        0.21796653       4.21129815       1.49421277
H        1.41167814       2.21270678      -0.46877504
H        2.05157395       4.15394076       2.89688756
H        1.65372984       2.62417577       3.54408729
Cu       1.91045053       2.51189804       0.90825758
18
Properties=species:S:1:pos:R:3 Coordinates=T from=T ORCA-job=T orca=T energy=-1967.141867926374 pbc="F F F"
C       -2.95657227       1.79853324       1.58278080
C       -1.85578713       2.62762536       1.45729408
C       -0.68942881       2.36909463       2.19538915
C       -0.64291782       1.25911497       3.05463857
C       -1.74767624       0.43702336       3.17552661
C       -2.90380084       0.70313281       2.44057926
H       -3.85432919       2.00270803       1.01509955
H       -3.76338754       0.05294171       2.53876055
H       -1.88493385       3.47953635       0.78988830
H        0.24716640       1.03016331       3.62614943
H       -1.71337037      -0.41536015       3.84058069
C        0.41016998       3.28701134       2.02809324
N        1.54701466       3.28182367       2.78251433
H        0.22100424       4.20888849       1.49104583
H        1.39556300       2.22185673      -0.46196102
H        2.05036542       4.15430150       2.89975153
H        1.65110784       2.62516610       3.54724743
Cu       1.91227251       2.51089855       0.90966167
18
Properties=species:S:1:pos:R:3 Coordinates=T from=T ORCA-job=T orca=T energy=-1967.141688010375 pbc="F F F"
C       -2.95554223       1.79829045       1.58215586
C       -1.85379059       2.62590614       1.45483740
C       -0.68744608       2.36715748       2.19257074
C       -0.64164098       1.25826609       3.05299139
C       -1.74731991       0.43747385       3.17571088
C       -2.90362788       0.70394406       2.44134973
H       -3.85341654       2.00288369       1.01479313
H       -3.76394894       0.05494608       2.54097162
H       -1.88241326       3.47694628       0.78628582
H        0.24863896       1.02883401       3.62403238
H       -1.71341589      -0.41412600       3.84180081
C        0.41335604       3.28440128       2.02437408
N        1.54738308       3.28150937       2.78414018
H        0.22402880       4.20641901       1.48768451
H        1.38003808       2.23084761      -0.45485856
H        2.04903038       4.15473803       2.90252761
H        1.64826145       2.62632423       3.55047117
Cu       1.91428550       2.50969834       0.91120126
18
Properties=species:S:1:pos:R:3 Coordinates=T from=T ORCA-job=T orca=T energy=-1967.141496305249 pbc="F F F"
C       -2.95457859       1.79810680       1.58161950
C       -1.85186865       2.62424493       1.45243442
C       -0.68549009       2.36523145       2.18971192
C       -0.64033396       1.25738565       3.05124390
C       -1.74692059       0.43788956       3.17582333
C       -2.90346063       0.70476770       2.44214162
H       -3.85260998       2.00315403       1.01465190
H       -3.76450715       0.05696039       2.54322362
H       -1.88001296       3.47445089       0.78278893
H        0.25018657       1.02743765       3.62173057
H       -1.71337034      -0.41296710       3.84289233
C        0.41651324       3.28179872       2.02059704
N        1.54766140       3.28124718       2.78574169
H        0.22703590       4.20392167       1.48420515
H        1.36491232       2.23969195      -0.44750277
H        2.04762081       4.15522205       2.90520920
H        1.64526419       2.62760092       3.55371642
Cu       1.91641852       2.50831556       0.91281123
18
Properties=species:S:1:pos:R:3 Coordinates=T from=T ORCA-job=T orca=T energy=-1967.141292726753 pbc="F F F"
C       -2.95365363       1.79796747       1.58113703
C       -1.85000496       2.62264750       1.45009156
C       -0.68356379       2.36334045       2.18685638
C       -0.63901112       1.25650079       3.04944472
C       -1.74648355       0.43827890       3.17587447
C       -2.90328148       0.70558888       2.44292149
H       -3.85186409       2.00348656       1.01460686
H       -3.76503473       0.05895122       2.54544909
H       -1.87770688       3.47205335       0.77939970
H        0.25177477       1.02602040       3.61933077
H       -1.71324881      -0.41187218       3.84387037
C        0.41964249       3.27922270       2.01680350
N        1.54787980       3.28102990       2.78731156
H        0.23002413       4.20142469       1.48066585
H        1.35001771       2.24835960      -0.43990308
H        2.04618070       4.15573829       2.90778558
H        1.64217830       2.62896767       3.55695136
Cu       1.91861515       2.50675379       0.91444279
18
Properties=species:S:1:pos:R:3 Coordinates=T from=T ORCA-job=T orca=T energy=-1967.141077281914 pbc="F F F"
C       -2.95274210       1.79785387       1.58067572
C       -1.84818137       2.62110825       1.44780685
C       -0.68166516       2.36149414       2.18403491
C       -0.63768825       1.25563326       3.04764037
C       -1.74602133       0.43865390       3.17588464
C       -2.90307996       0.70639508       2.44366583
H       -3.85113680       2.00384686       1.01459272
H       -3.76551583       0.06089516       2.54759976
H       -1.87546372       3.46974082       0.77610597
H        0.25336752       1.02462450       3.61691882
H       -1.71307858      -0.41081893       3.84476943
C        0.42274434       3.27668520       2.01302897
N        1.54806469       3.28084263       2.78883962
H        0.23298697       4.19895349       1.47712837
H        1.33522175       2.25686663      -0.43208024
H        2.04474562       4.15626601       2.91025631
H        1.63906961       2.63037620       3.56013290
Cu       1.92083261       2.50504293       0.91603905
18
Properties=species:S:1:pos:R:3 Coordinates=T from=T ORCA-job=T orca=T energy=-1967.140850697461 pbc="F F F"
C       -2.95169769       1.79782635       1.58010768
C       -1.84634100       2.61985234       1.44573166
C       -0.67977122       2.35989614       2.18149710
C       -0.63634344       1.25484121       3.04595532
C       -1.74541128       0.43892093       3.17566542
C       -2.90266328       0.70709923       2.44404965
H       -3.85023510       2.00425930       1.01439701
H       -3.76568625       0.06256463       2.54910095
H       -1.87324510       3.46785349       0.77320908
H        0.25495554       1.02336225       3.61468611
H       -1.71274743      -0.41002591       3.84524186
C        0.42569707       3.27440906       2.00968708
N        1.54821442       3.28097530       2.79053804
H        0.23605835       4.19638189       1.47332420
H        1.31908936       2.26443543      -0.42369068
H        2.04377046       4.15691628       2.91224209
H        1.63621735       2.63234412       3.56363477
Cu       1.92259925       2.50254798       0.91766268
18
Properties=species:S:1:pos:R:3 Coordinates=T from=T ORCA-job=T orca=T energy=-1967.140611274101 pbc="F F F"
C       -2.95089798       1.79768599       1.57973260
C       -1.84462685       2.61825610       1.44347153
C       -0.67797733       2.35803051       2.17865671
C       -0.63508668       1.25402673       3.04415489
C       -1.74503386       0.43936047       3.17577207
C       -2.90256722       0.70791305       2.44493163
H       -3.84962303       2.00458441       1.01447099
H       -3.76626139       0.06452131       2.55143636
H       -1.87110922       3.46542328       0.76986382
H        0.25647152       1.02198100       3.61227969
H       -1.71261463      -0.40886693       3.84628513
C        0.42884487       3.27180792       2.00568445
N        1.54839160       3.28061873       2.79177988
H        0.23880252       4.19417800       1.47021951
H        1.30545613       2.27310138      -0.41563378
H        2.04206584       4.15736699       2.91474797
H        1.63301340       2.63329763       3.56625302
Cu       1.92521232       2.50117343       0.91893353
18
Properties=species:S:1:pos:R:3 Coordinates=T from=T ORCA-job=T orca=T energy=-1967.140361461511 pbc="F F F"
C       -2.94985318       1.79774255       1.57919194
C       -1.84285558       2.61718825       1.44157790
C       -0.67613731       2.35658174       2.17626635
C       -0.63373916       1.25327961       3.04248100
C       -1.74435246       0.43956960       3.17541279
C       -2.90207315       0.70856801       2.44516611
H       -3.84871608       2.00508391       1.01429726
H       -3.76628941       0.06603820       2.55263708
H       -1.86900032       3.46379851       0.76724651
H        0.25808328       1.02075571       3.61001978
H       -1.71216110      -0.40823639       3.84647954
C        0.43174979       3.26965368       2.00243834
N        1.54853302       3.28089857       2.79338755
H        0.24185273       4.19165321       1.46638052
H        1.28916016       2.27992229      -0.40667832
H        2.04111869       4.15815595       2.91652707
H        1.63021731       2.63547937       3.56967798
Cu       1.92692277       2.49832726       0.92053059
18
Properties=species:S:1:pos:R:3 Coordinates=T from=T ORCA-job=T orca=T energy=-1967.14009959487 pbc="F F F"
C       -2.94891454       1.79772493       1.57871652
C       -1.84114982       2.61596361       1.43962756
C       -0.67436991       2.35503329       2.17380577
C       -0.63247848       1.25256429       3.04083689
C       -1.74381946       0.43987669       3.17524098
C       -2.90173451       0.70925146       2.44560912
H       -3.84790976       2.00549723       1.01417371
H       -3.76649658       0.06763844       2.55415212
H       -1.86692309       3.46191301       0.76443821
H        0.25956993       1.01952545       3.60783634
H       -1.71184753      -0.40740650       3.84698992
C        0.43474422       3.26734913       1.99891144
N        1.54869126       3.28093339       2.79473339
H        0.24464065       4.18936546       1.46304718
H        1.27410873       2.28726826      -0.39779308
H        2.03986327       4.15881867       2.91845597
H        1.62736246       2.63705480       3.57252020
Cu       1.92912316       2.49608839       0.92173777
18
Properties=species:S:1:pos:R:3 Coordinates=T from=T ORCA-job=T orca=T energy=-1967.139826432413 pbc="F F F"
C       -2.94797503       1.79774804       1.57824888
C       -1.83948635       2.61484650       1.43778396
C       -0.67264258       2.35357708       2.17144309
C       -0.63122136       1.25188228       3.03921238
C       -1.74324737       0.44015036       3.17499079
C       -2.90135097       0.70989818       2.44595948
H       -3.84709616       2.00594539       1.01404602
H       -3.76661705       0.06913345       2.55548023
H       -1.86490689       3.46017557       0.76178946
H        0.26106567       1.01833436       3.60565358
H       -1.71146796      -0.40667374       3.84733888
C        0.43770182       3.26512557       1.99545369