17
	Energy:      18.1285528
C        -16.91588        6.37080       -0.86013
C        -16.09666        7.50136       -0.69635
C        -16.37268        5.08382       -0.80381
C        -15.00473        4.91048       -0.58424
C        -14.71560        7.31377       -0.47647
C        -14.17771        6.02383       -0.42123
H        -13.11718        5.88760       -0.25229
H        -14.58536        3.91364       -0.54115
H        -14.04537        8.15286       -0.34865
H        -17.97913        6.48730       -1.03156
H        -17.01317        4.22057       -0.93081
C        -16.74169        8.86897       -0.76881
N        -15.78957        9.95976       -0.57333
H        -17.53952        8.93890        0.00384
H        -17.21280        8.98014       -1.76972
H        -15.44269        9.93576        0.41349
H        -16.29464       10.86623       -0.70239
