15
Properties=species:S:1:pos:R:3 Energy:=T 12.9406666=T pbc="F F F"
C       -2.46950657      -0.54117045      -0.11252192
C       -1.07283657      -0.69096045      -0.09875192
C       -0.52041657      -1.97965045      -0.22782192
C       -1.35452657      -3.09358045      -0.36770192
C       -2.74232657      -2.93319045      -0.38011192
C       -3.29917657      -1.65825045      -0.25265192
H       -2.91808657       0.43999955      -0.01486192
H        0.55217343      -2.12735045      -0.22082192
H       -0.92436657      -4.08190045      -0.46654192
H       -3.38600657      -3.79657045      -0.48847192
H       -4.37448657      -1.53509045      -0.26240192
C       -0.21642657       0.50638955       0.05072808
N        1.06287343       0.41467955       0.06831808
H       -0.67253657       1.48676955       0.14814808
Cu       2.15844343       2.02501955       0.26814808
