18
Properties=species:S:1:pos:R:3 Coordinates=T from=T ORCA-job=T orca=T energy=-1967.143365032044 pbc="F F F"
C       -2.99090916       1.81385268       1.61340685
C       -1.90726333       2.66690599       1.51005242
C       -0.73014461       2.40342265       2.23439663
C       -0.65966560       1.26649026       3.06123063
C       -1.74711712       0.42258892       3.15864329
C       -2.91130266       0.69239741       2.43468633
H       -3.89553244       2.01778633       1.05698538
H       -3.75751957       0.02237997       2.51425872
H       -1.95471352       3.54008372       0.87203501
H        0.23707206       1.03797287       3.62201737
H       -1.69614085      -0.45060986       3.79476840
C        0.34720460       3.33342550       2.08024186
N        1.52297198       3.29604007       2.74859892
H        0.16371949       4.24563504       1.52449795
H        1.76089922       2.04354186      -0.53667079
H        2.05731492       4.15501933       2.83382139
H        1.67270706       2.62562170       3.49534893
Cu       1.91087953       2.50190557       0.89472070
18
Properties=species:S:1:pos:R:3 Coordinates=T from=T ORCA-job=T orca=T energy=-1967.143359885667 pbc="F F F"
C       -2.98898672       1.81308203       1.61176683
C       -1.90418985       2.66456487       1.50688789
C       -0.72763779       2.40124643       2.23189249
C       -0.65855290       1.26579299       3.06054857
C       -1.74715387       0.42334441       3.15957231
C       -2.91101281       0.69313038       2.43524258
H       -3.89325178       2.01723373       1.05482434
H       -3.75811180       0.02440196       2.51619887
H       -1.95050923       3.53655589       0.86715380
H        0.23792267       1.03693341       3.62164373
H       -1.69714685      -0.44870254       3.79736803
C        0.35092379       3.33069703       2.07693326
N        1.52442936       3.29554617       2.75078019
H        0.16648657       4.24356035       1.52260846
H        1.74063339       2.05249127      -0.53384846
H        2.05679893       4.15543351       2.83841955
H        1.67129722       2.62569395       3.49851277
Cu       1.91052167       2.50345416       0.89653480
18
Properties=species:S:1:pos:R:3 Coordinates=T from=T ORCA-job=T orca=T energy=-1967.143346571278 pbc="F F F"
C       -2.98688208       1.81224160       1.60992681
C       -1.90110277       2.66240675       1.50384789
C       -0.72521748       2.39934084       2.22971309
C       -0.65753447       1.26534165       3.06018695
C       -1.74710195       0.42407597       3.16044399
C       -2.91046972       0.69368605       2.43543164
H       -3.89075223       2.01644600       1.05234411
H       -3.75833339       0.02605020       2.51736388
H       -1.94638745       3.53327316       0.86250001
H        0.23856307       1.03646086       3.62189982
H       -1.69806301      -0.44686439       3.79983796
C        0.35459835       3.32811676       2.07408766
N        1.52596007       3.29495221       2.75306666
H        0.17013615       4.24147377       1.52060311
H        1.71883240       2.06132382      -0.53108126
H        2.05644913       4.15573561       2.84260512
H        1.67028089       2.62602883       3.50203032
Cu       1.90948449       2.50437032       0.89823224
18
Properties=species:S:1:pos:R:3 Coordinates=T from=T ORCA-job=T orca=T energy=-1967.143324492724 pbc="F F F"
C       -2.98473778       1.81130145       1.60799113
C       -1.89795018       2.66010478       1.50072135
C       -0.72278712       2.39736076       2.22757958
C       -0.65659720       1.26491546       3.06000450
C       -1.74717924       0.42489908       3.16151841
C       -2.90998985       0.69426501       2.43569438
H       -3.88814015       2.01551079       1.04963429
H       -3.75864167       0.02776180       2.51865385
H       -1.94210046       3.52975926       0.85764213
H        0.23904075       1.03602394       3.62246772
H       -1.69919668      -0.44483312       3.80264832
C        0.35826812       3.32546730       2.07127828
N        1.52753956       3.29419494       2.75527067
H        0.17351566       4.23938266       1.51883302
H        1.69719053       2.07100018      -0.52847612
H        2.05623449       4.15580010       2.84680404
H        1.66933538       2.62601556       3.50528265
Cu       1.90865584       2.50553006       0.89949179
18
Properties=species:S:1:pos:R:3 Coordinates=T from=T ORCA-job=T orca=T energy=-1967.143293696592 pbc="F F F"
C       -2.98256004       1.81029294       1.60599124
C       -1.89477911       2.65775161       1.49756591
C       -0.72037752       2.39538253       2.22549282
C       -0.65571879       1.26454888       3.05993773
C       -1.74730820       0.42577048       3.16268535
C       -2.90951206       0.69482591       2.43595313
H       -3.88546331       2.01445159       1.04679065
H       -3.75894869       0.02945265       2.51990934
H       -1.93777363       3.52615270       0.85270587
H        0.23941339       1.03572802       3.62325728
H       -1.70041561      -0.44270003       3.80561699
C        0.36193586       3.32281315       2.06853472
N        1.52914161       3.29331517       2.75741925
H        0.17693441       4.23734947       1.51721855
H        1.67546401       2.08110477      -0.52589161
H        2.05604957       4.15572792       2.85095650
H        1.66847588       2.62580378       3.50838832
Cu       1.90790222       2.50668847       0.90050795
18
Properties=species:S:1:pos:R:3 Coordinates=T from=T ORCA-job=T orca=T energy=-1967.14325408354 pbc="F F F"
C       -2.98032031       1.80920200       1.60388928
C       -1.89156373       2.65534113       1.49438486
C       -0.71798171       2.39341993       2.22349866
C       -0.65490899       1.26426197       3.06003830
C       -1.74750085       0.42670838       3.16397024
C       -2.90902712       0.69536534       2.43618818
H       -3.88266604       2.01324005       1.04372649
H       -3.75923773       0.03110417       2.52109501
H       -1.93335229       3.52243377       0.84767769
H        0.23964514       1.03558481       3.62435318
H       -1.70174958      -0.44043921       3.80878081
C        0.36559486       3.32016622       2.06588902
N        1.53080322       3.29230387       2.75948640
H        0.18029222       4.23538186       1.51582604
H        1.65355553       2.09166038      -0.52333761
H        2.05596751       4.15548213       2.85506369
H        1.66775145       2.62534982       3.51128743
Cu       1.90715842       2.50789336       0.90122233
18
Properties=species:S:1:pos:R:3 Coordinates=T from=T ORCA-job=T orca=T energy=-1967.143205500108 pbc="F F F"
C       -2.97810671       1.80810529       1.60180510
C       -1.88837571       2.65291790       1.49120787
C       -0.71560446       2.39144893       2.22149596
C       -0.65411176       1.26397767       3.06013414
C       -1.74770723       0.42765524       3.16526324
C       -2.90856127       0.69591090       2.43644389
H       -3.87990008       2.01201757       1.04068893
H       -3.75954757       0.03277036       2.52231206
H       -1.92896198       3.51869304       0.84265071
H        0.23986434       1.03545274       3.62544653
H       -1.70309380      -0.43815772       3.81195771
C        0.36923136       3.31751728       2.06323785
N        1.53244226       3.29126173       2.76149936
H        0.18361251       4.23342721       1.51445955
H        1.63182132       2.10236511      -0.52058794
H        2.05585990       4.15519912       2.85911579
H        1.66702930       2.62483408       3.51409243
Cu       1.90656961       2.50906355       0.90181681
18
Properties=species:S:1:pos:R:3 Coordinates=T from=T ORCA-job=T orca=T energy=-1967.143143784432 pbc="F F F"
C       -2.97637754       1.80734812       1.59995504
C       -1.88633812       2.65177845       1.48919557
C       -0.71400636       2.39064287       2.22021392
C       -0.65342914       1.26412038       3.06010828
C       -1.74735982       0.42818057       3.16547787
C       -2.90768654       0.69596435       2.43572384
H       -3.87779591       2.01099632       1.03813025
H       -3.75892999       0.03317756       2.52179125
H       -1.92631947       3.51693759       0.83977734
H        0.24012486       1.03599648       3.62624955
H       -1.70338866      -0.43694120       3.81314829
C        0.37136732       3.31633158       2.06162683
N        1.53405943       3.29064549       2.76220978
H        0.18653205       4.23221273       1.51260048
H        1.61258374       2.10907909      -0.51215001
H        2.05740380       4.15455957       2.85990455
H        1.66781651       2.62490567       3.51548740
Cu       1.90420384       2.50852437       0.90358978
18
Properties=species:S:1:pos:R:3 Coordinates=T from=T ORCA-job=T orca=T energy=-1967.143079880815 pbc="F F F"
C       -2.97405040       1.80608997       1.59801485
C       -1.88229243       2.64808928       1.48491306
C       -0.71095172       2.38734586       2.21718591
C       -0.65244640       1.26317237       3.05987834
C       -1.74814285       0.42949058       3.16773524
C       -2.90787377       0.69716457       2.43727290
H       -3.87488643       2.00989262       1.03528691
H       -3.76049168       0.03641794       2.52534456
H       -1.92058424       3.51123873       0.83270558
H        0.24053747       1.03468276       3.62680940
H       -1.70568037      -0.43368967       3.81811014
C        0.37640230       3.31198854       2.05742945
N        1.53571143       3.28915021       2.76508304
H        0.18955478       4.22942144       1.51166389
H        1.59071594       2.12368072      -0.51396916
H        2.05506807       4.15487207       2.86722677
H        1.66547684       2.62377030       3.51925242
Cu       1.90639345       2.51168171       0.90309669
18
Properties=species:S:1:pos:R:3 Coordinates=T from=T ORCA-job=T orca=T energy=-1967.142999409878 pbc="F F F"
C       -2.97235223       1.80533299       1.59620025
C       -1.88030182       2.64697163       1.48294615
C       -0.70937536       2.38656494       2.21590253
C       -0.65177826       1.26334143       3.05983502
C       -1.74778821       0.43001058       3.16791941
C       -2.90699890       0.69719649       2.43653987
H       -3.87283050       2.00887016       1.03279247
H       -3.75985306       0.03677613       2.52478569
H       -1.91801457       3.50952792       0.82991706
H        0.24079161       1.03531809       3.62760735
H       -1.70595621      -0.43248102       3.81925550
C        0.37852615       3.31083672       2.05581084
N        1.53727053       3.28850765       2.76572758
H        0.19260540       4.22822553       1.50972111
H        1.57167320       2.13046422      -0.50523677
H        2.05660728       4.15417950       2.86789027
H        1.66616917       2.62384286       3.52060392
Cu       1.90406581       2.51097416       0.90482176
18
Properties=species:S:1:pos:R:3 Coordinates=T from=T ORCA-job=T orca=T energy=-1967.142916238726 pbc="F F F"
C       -2.97001667       1.80414530       1.59430168
C       -1.87635496       2.64349441       1.47888802
C       -0.70639002       2.38348313       2.21303449
C       -0.65075259       1.26250862       3.05958686
C       -1.74840087       0.43125978       3.16994633
C       -2.90703102       0.69831081       2.43787843
H       -3.86993613       2.00781885       1.03002476
H       -3.76114916       0.03977779       2.52792855
H       -1.91245398       3.50413700       0.82322715
H        0.24129205       1.03418516       3.62810436
H       -1.70797629      -0.42941707       3.82378523
C        0.38347482       3.30676814       2.05182440
N        1.53874110       3.28716568       2.76862576
H        0.19590194       4.22554311       1.50861634
H        1.54920351       2.14439263      -0.50624588
H        2.05440711       4.15446523       2.87479846
H        1.66362747       2.62302442       3.52451488
Cu       1.90627370       2.51339702       0.90420018
18
Properties=species:S:1:pos:R:3 Coordinates=T from=T ORCA-job=T orca=T energy=-1967.142816706449 pbc="F F F"
C       -2.96835676       1.80339439       1.59250876
C       -1.87441766       2.64240049       1.47695721
C       -0.70485254       2.38272346       2.21176601
C       -0.65010541       1.26269323       3.05953949
C       -1.74805852       0.43178595       3.17012181
C       -2.90617391       0.69834177       2.43714582
H       -3.86791913       2.00678852       1.02754977
H       -3.76051775       0.04012069       2.52735782
H       -1.90994676       3.50244319       0.82047532
H        0.24153165       1.03483655       3.62888338
H       -1.70825086      -0.42820661       3.82490575
C        0.38556375       3.30561584       2.05019014
N        1.54030159       3.28650700       2.76920305
H        0.19889956       4.22434379       1.50665863
H        1.53042172       2.15123061      -0.49719656
H        2.05596740       4.15374822       2.87535215
H        1.66434607       2.62308095       3.52578494
Cu       1.90402755       2.51261195       0.90583653
18
Properties=species:S:1:pos:R:3 Coordinates=T from=T ORCA-job=T orca=T energy=-1967.142713922607 pbc="F F F"
C       -2.96604538       1.80225925       1.59064253
C       -1.87058597       2.63909315       1.47309100
C       -0.70195951       2.37981871       2.20905883
C       -0.64909180       1.26196128       3.05931905
C       -1.74859335       0.43301089       3.17201724
C       -2.90612418       0.69939855       2.43833897
H       -3.86504829       2.00575777       1.02480520
H       -3.76164816       0.04294698       2.53019264
H       -1.90456223       3.49727346       0.81407278
H        0.24202157       1.03382230       3.62940990
H       -1.71011541      -0.42524618       3.82917107
C        0.39042128       3.30170788       2.04633709
N        1.54170725       3.28524224       2.77198123
H        0.20204668       4.22177905       1.50565781
H        1.50788119       2.16473865      -0.49739799
H        2.05385721       4.15401481       2.88186709
H        1.66183072       2.62235426       3.52954553
Cu       1.90646838       2.51452696       0.90493004
18
Properties=species:S:1:pos:R:3 Coordinates=T from=T ORCA-job=T orca=T energy=-1967.142595376985 pbc="F F F"
C       -2.96443704       1.80151395       1.58888802
C       -1.86871091       2.63801512       1.47119140
C       -0.70046166       2.37907024       2.20778344
C       -0.64846337       1.26215788       3.05925249
C       -1.74826303       0.43354318       3.17218715
C       -2.90529310       0.69942965       2.43762544
H       -3.86309161       2.00472277       1.02238091
H       -3.76103370       0.04328006       2.52964348
H       -1.90213069       3.49558801       0.81135135
H        0.24225671       1.03449154       3.63014575
H       -1.71038487      -0.42403049       3.83027471
C        0.39247847       3.30055044       2.04466595
N        1.54324888       3.28455717       2.77248984
H        0.20502706       4.22057144       1.50365318
H        1.48945691       2.17170580      -0.48805435
H        2.05541889       4.15326239       2.88232149
H        1.66252649       2.62238804       3.53074108
Cu       1.90431656       2.51364283       0.90649867
18
Properties=species:S:1:pos:R:3 Coordinates=T from=T ORCA-job=T orca=T energy=-1967.142473689649 pbc="F F F"
C       -2.96218272       1.80061025       1.58715531
C       -1.86506009       2.63510531       1.46763451
C       -0.69762585       2.37643089       2.20520024
C       -0.64731581       1.26141616       3.05882973
C       -1.74851304       0.43458172       3.17364096
C       -2.90504656       0.70043715       2.43853699
H       -3.86036320       2.00397397       1.01992867
H       -3.76186369       0.04590148       2.53199861
H       -1.89709247       3.49102299       0.80556218
H        0.24298455       1.03339084       3.63026964
H       -1.71180276      -0.42150638       3.83374144
C        0.39710536       3.29693059       2.04109998
N        1.54437957       3.28376064       2.77547649
H        0.20827721       4.21777288       1.50195977
H        1.46635318       2.18402921      -0.48706209
H        2.05356239       4.15376198       2.88820258
H        1.65989947       2.62255838       3.53503728
Cu       1.90676447       2.51428196       0.90582772
18
Properties=species:S:1:pos:R:3 Coordinates=T from=T ORCA-job=T orca=T energy=-1967.142338872005 pbc="F F F"
C       -2.96045169       1.79985347       1.58569708
C       -1.86246249       2.63310800       1.46496416
C       -0.69551687       2.37470162       2.20305769
C       -0.64634365       1.26110569       3.05828149
C       -1.74839073       0.43533311       3.17434966
C       -2.90458992       0.70097874       2.43884254
H       -3.85834623       2.00324197       1.01800574
H       -3.76204392       0.04741834       2.53325487
H       -1.89361271       3.48791489       0.80140050
H        0.24370664       1.03308881       3.63014268
H       -1.71242935      -0.41971358       3.83585250
C        0.40049191       3.29461624       2.03825102
N        1.54513708       3.28312188       2.77743811
H        0.21182386       4.21584449       1.49976285
H        1.44662405       2.19404330      -0.48161220
H        2.05320903       4.15355516       2.89116891
H        1.65794264       2.62276046       3.53802667
Cu       1.90771236       2.51348738       0.90615574
18
Properties=species:S:1:pos:R:3 Coordinates=T from=T ORCA-job=T orca=T energy=-1967.14219279195 pbc="F F F"
C       -2.95909351       1.79926560       1.58462224
C       -1.86017158       2.63114269       1.46234766
C       -0.69349412       2.37281625       2.20056679
C       -0.64531410       1.26056086       3.05727805
C       -1.74827879       0.43599980       3.17494784
C       -2.90436382       0.70164852       2.43945933
H       -3.85687583       2.00283801       1.01679820
H       -3.76252323       0.04919667       2.53510296
H       -1.89058109       3.48489512       0.79737861
H        0.24466106       1.03236094       3.62921253
H       -1.71293846      -0.41804942       3.83778469
C        0.40380575       3.29207491       2.03487062
N        1.54586899       3.28242820       2.77897286
H        0.21494051       4.21378610       1.49732780
H        1.42957417       2.20388316      -0.47545242
H        2.05228779       4.15355693       2.89413751
H        1.65579839       2.62299207       3.54067950
Cu       1.90915787       2.51306357       0.90700521
18
Properties=species:S:1:pos:R:3 Coordinates=T from=T ORCA-job=T orca=T energy=-1967.142035880569 pbc="F F F"
C       -2.95781233       1.79886394       1.58367955
C       -1.85794146       2.62932705       1.45978845
C       -0.69144265       2.37092017       2.19797861
C       -0.64413719       1.25984391       3.05600637
C       -1.74802271       0.43654207       3.17531025
C       -2.90410646       0.70239687       2.44005711
H       -3.85556392       2.00272607       1.01589339
H       -3.76299526       0.05109576       2.53698698
H       -1.88768870       3.48212360       0.79355173
H        0.24586943       1.03128198       3.62777101
H       -1.71322995      -0.41663546       3.83930910
C        0.40703752       3.28949812       2.03145215
N        1.54653657       3.28202134       2.78067158
H        0.21795178       4.21139343       1.49435230
H        1.41250683       2.21305758      -0.46893005
H        2.05128189       4.15387946       2.89708125
H        1.65354578       2.62388346       3.54382003
Cu       1.91067083       2.51224066       0.90826021
18
Properties=species:S:1:pos:R:3 Coordinates=T from=T ORCA-job=T orca=T energy=-1967.141867514757 pbc="F F F"
C       -2.95668551       1.79852840       1.58292527
C       -1.85585000       2.62753177       1.45726816
C       -0.68943574       2.36898576       2.19523335
C       -0.64291449       1.25906951       3.05452495
C       -1.74772738       0.43705381       3.17560626
C       -2.90391660       0.70317882       2.44079021
H       -3.85449302       2.00274687       1.01533697
H       -3.76353941       0.05305838       2.53911742
H       -1.88500965       3.47940202       0.78980833
H        0.24721478       1.03009819       3.62596202
H       -1.71339974      -0.41527916       3.84072550
C        0.41026241       3.28689934       2.02782098
N        1.54701753       3.28160447       2.78229736
H        0.22101149       4.20902023       1.49122283
H        1.39646817       2.22227087      -0.46213651
H        2.05005382       4.15420644       2.89996107
H        1.65088980       2.62480775       3.54693652
Cu       1.91251355       2.51127653       0.90963929
18
Properties=species:S:1:pos:R:3 Coordinates=T from=T ORCA-job=T orca=T energy=-1967.141687590556 pbc="F F F"
C       -2.95565259       1.79828930       1.58229852
C       -1.85385219       2.62581770       1.45481327
C       -0.68745120       2.36705252       2.19241791
C       -0.64163637       1.25822076       3.05287772
C       -1.74736789       0.43750278       3.17578607
C       -2.90373939       0.70399096       2.44155515
H       -3.85357732       2.00292678       1.01502893
H       -3.76409563       0.05506215       2.54131867
H       -1.88248874       3.47681913       0.78621041
H        0.24868787       1.02876900       3.62384607
H       -1.71344154      -0.41404944       3.84193711
C        0.41344839       3.28429027       2.02410646
N        1.54739013       3.28129472       2.78392583
H        0.22403224       4.20654599       1.48785761
H        1.38091411       2.23122470      -0.45502784
H        2.04871800       4.15464889       2.90274044
H        1.64805480       2.62597359       3.55016434
Cu       1.91451733       2.51008020       0.91118332
18
Properties=species:S:1:pos:R:3 Coordinates=T from=T ORCA-job=T orca=T energy=-1967.141495857673 pbc="F F F"
C       -2.95468732       1.79810240       1.58175976
C       -1.85193029       2.62415457       1.45240794
C       -0.68549623       2.36512885       2.18955878
C       -0.64033040       1.25734664       3.05113373
C       -1.74696887       0.43792332       3.17590277
C       -2.90357070       0.70481395       2.44234805
H       -3.85276852       2.00319139       1.01488341
H       -3.76465070       0.05707394       2.54357125
H       -1.88008857       3.47431988       0.78270872
H        0.25023145       1.02738453       3.62155449
H       -1.71339635      -0.41288256       3.84303684
C        0.41660840       3.28168981       2.02032548
N        1.54767085       3.28102000       2.78552049
H        0.22704529       4.20406331       1.48439563
H        1.36578812       2.24006320      -0.44767689
H        2.04730242       4.15512102       2.90543105
H        1.64505276       2.62722764       3.55339361
Cu       1.91664867       2.50871811       0.91278489
18
Properties=species:S:1:pos:R:3 Coordinates=T from=T ORCA-job=T orca=T energy=-1967.141292264001 pbc="F F F"
C       -2.95376182       1.79796459       1.58127778
C       -1.85006765       2.62256024       1.45006662
C       -0.68357000       2.36324135       2.18670352
C       -0.63900680       1.25646497       3.04933373
C       -1.74652956       0.43831378       3.17595227
C       -2.90338917       0.70563535       2.44312672
H       -3.85202245       2.00352501       1.01483940
H       -3.76517430       0.05906297       2.54579361
H       -1.87778494       3.47192628       0.77932223
H        0.25182010       1.02597310       3.61915530
H       -1.71327112      -0.41178702       3.84401238
C        0.41974112       3.27911436       2.01652817
N        1.54789156       3.28079752       2.78708587
H        0.23003614       4.20157255       1.48086308
H        1.35088764       2.24870006      -0.44007444
H        2.04585346       4.15563520       2.90801436
H        1.64196279       2.62858760       3.55662261
Cu       1.91884499       2.50717209       0.91441678
18
Properties=species:S:1:pos:R:3 Coordinates=T from=T ORCA-job=T orca=T energy=-1967.141076821594 pbc="F F F"
C       -2.95285003       1.79785736       1.58081959
C       -1.84824567       2.62103034       1.44778891
C       -0.68167115       2.36140194       2.18388438
C       -0.63768005       1.25559938       3.04752446
C       -1.74606134       0.43868640       3.17595334
C       -2.90318361       0.70644183       2.44386641
H       -3.85129548       2.00389314       1.01483015
H       -3.76564846       0.06100286       2.54793424
H       -1.87554618       3.46962650       0.77604016
H        0.25341908       1.02457742       3.61673464
H       -1.71309103      -0.41074184       3.84489490
C        0.42284771       3.27658070       2.01274957
N        1.54807872       3.28061294       2.78861091
H        0.23300267       4.19911065       1.47733102
H        1.33607071       2.25713153      -0.43223529
H        2.04440665       4.15617093       2.91048904
H        1.63884423       2.63000398       3.55980599
Cu       1.92106323       2.50547392       0.91601758
18
Properties=species:S:1:pos:R:3 Coordinates=T from=T ORCA-job=T orca=T energy=-1967.140849608098 pbc="F F F"
C       -2.95193854       1.79778015       1.58036944
C       -1.84645864       2.61957921       1.44558921
C       -0.67980368       2.35963169       2.18113485
C       -0.63635839       1.25476506       3.04573166
C       -1.74556394       0.43903954       3.17590046
C       -2.90294276       0.70722340       2.44454134
H       -3.85056476       2.00428632       1.01482159
H       -3.76605523       0.06286917       2.54994207
H       -1.87336166       3.46743716       0.77287893
H        0.25501205       1.02321690       3.61433163
H       -1.71285747      -0.40975591       3.84566976
C        0.42592882       3.27410132       2.00901612
N        1.54825048       3.28047789       2.79009372
H        0.23594314       4.19668607       1.47381980
H        1.32122727       2.26528292      -0.42414025
H        2.04298688       4.15673755       2.91284121
H        1.63574240       2.63148274       3.56293343
Cu       1.92327404       2.50361883       0.91756503
18
Properties=species:S:1:pos:R:3 Coordinates=T from=T ORCA-job=T orca=T energy=-1967.14061074884 pbc="F F F"
C       -2.95101882       1.79773196       1.57991817
C       -1.84470461       2.61821875       1.44348136
C       -0.67797021       2.35794508       2.17847724
C       -0.63504638       1.25397227       3.04397301
C       -1.74503814       0.43937346       3.17579197
C       -2.90265823       0.70797097       2.44513176
H       -3.84981507       2.00469933       1.01479226
H       -3.76637891       0.06463870       2.55177383
H       -1.87122716       3.46537300       0.76985567
H        0.25658783       1.02190760       3.61197675
H       -1.71257331      -0.40883340       3.84633024
C        0.42898278       3.27168828       2.00534279
N        1.54841746       3.28039928       2.79152939
H        0.23885907       4.19431061       1.47034256
H        1.30628955       2.27309989      -0.41577222
H        2.04161395       4.15733873       2.91505751
H        1.63268502       2.63302414       3.56599321
Cu       1.92545520       2.50160135       0.91904450
18
Properties=species:S:1:pos:R:3 Coordinates=T from=T ORCA-job=T orca=T energy=-1967.140360330267 pbc="F F F"
C       -2.95009242       1.79771390       1.57946434
C       -1.84298639       2.61695335       1.44147054
C       -0.67617457       2.35634752       2.17592054
C       -0.63374921       1.25322405       3.04225417
C       -1.74448688       0.43968619       3.17562394
C       -2.90233143       0.70868171       2.44563201
H       -3.84904573       2.00513067       1.01473616
H       -3.76661956       0.06630570       2.55341993
H       -1.86914495       3.46343871       0.76697585
H        0.25814228       1.02064765       3.60967258
H       -1.71224053      -0.40798070       3.84686719
C        0.43201004       3.26934460       2.00173521
N        1.54858808       3.28038481       2.79291599
H        0.24174837       4.19198603       1.46690189
H        1.29124198       2.28054404      -0.40711467
H        2.04029481       4.15798528       2.91713524
H        1.62969430       2.63463004       3.56898001
Cu       1.92761181       2.49943643       0.92044907
18
Properties=species:S:1:pos:R:3 Coordinates=T from=T ORCA-job=T orca=T energy=-1967.140098471791 pbc="F F F"
C       -2.94916057       1.79772573       1.57900996
C       -1.84129917       2.61577500       1.43955347
C       -0.67441316       2.35482930       2.17346350
C       -0.63246664       1.25251026       3.04057421
C       -1.74391686       0.43997538       3.17540260
C       -2.90197053       0.70935930       2.44605085
H       -3.84825768       2.00558414       1.01465635
H       -3.76679022       0.06787913       2.55489266
H       -1.86710553       3.46162395       0.76423187
H        0.25967442       1.01942438       3.60741874
H       -1.71187099      -0.40719821       3.84728942
C        0.43501008       3.26706204       1.99819258
N        1.54875975       3.28043728       2.79425299
H        0.24460713       4.18969798       1.46348958
H        1.27610819       2.28765632      -0.39818014
H        2.03901966       4.15868184       2.91907366
H        1.62677519       2.63630468       3.57189099
Cu       1.92975694       2.49713151       0.92177672
18
Properties=species:S:1:pos:R:3 Coordinates=T from=T ORCA-job=T orca=T energy=-1967.139825310871 pbc="F F F"
C       -2.94822231       1.79776011       1.57854976
C       -1.83964235       2.61467720       1.43772547
C       -0.67268826       2.35338854       2.17110728
C       -0.63120532       1.25183565       3.03894247
C       -1.74333473       0.44024616       3.17513769
C       -2.90157800       0.71000229       2.44639015
H       -3.84744776       2.00604736       1.01454150
H       -3.76689424       0.06935846       2.55619548
H       -1.86510496       3.45991676       0.76161279
H        0.26117416       1.01824670       3.60523099
H       -1.71147400      -0.40647487       3.84761502
C        0.43798177       3.26483801       1.99471682