18
Properties=species:S:1:pos:R:3 Coordinates=T from=T ORCA-job=T orca=T E=T -1967.143578997734=T pbc="F F F"
C       -2.98861954       1.81932894       1.60538694
C       -1.90013780       2.66633351       1.50438227
C       -0.72772669       2.40010645       2.23560519
C       -0.66711595       1.26630612       3.06794198
C       -1.76002392       0.42926318       3.16397230
C       -2.91924722       0.70185195       2.43298138
H       -3.88916001       2.02565208       1.04331439
H       -3.76975594       0.03733129       2.51229139
H       -1.93978208       3.53689838       0.86230820
H        0.22540576       1.03627923       3.63467197
H       -1.71758767      -0.44059666       3.80521805
C        0.35225558       3.32766662       2.08302600
N        1.52870847       3.28738419       2.74892853
H        1.67948711       2.61613068       3.49472838
H        2.06501341       4.14510107       2.83306734
H        0.16964531       4.24086228       1.52890576
H        0.94386476       3.52571125       0.85934829
Cu       3.11142873       2.75461055       1.32896829
