18
Properties=species:S:1:pos:R:3 energy=-1967.106470973031 pbc="F F F"
C       -2.99095700       1.81388700       1.61345800
C       -1.90736000       2.66701000       1.51014400
C       -0.73023400       2.40350600       2.23447100
C       -0.65969600       1.26654800       3.06126800
C       -1.74709800       0.42257100       3.15860900
C       -2.91127400       0.69236200       2.43463900
H       -3.89560700       2.01781300       1.05707700
H       -3.75744400       0.02227300       2.51411000
H       -1.95489100       3.54023300       0.87219800
H        0.23703000       1.03806900       3.62208600
H       -1.69607700      -0.45066400       3.79468100
C        0.34717000       3.33341200       2.08025000
N        1.52295900       3.29601500       2.74856200
H        0.16378000       4.24565200       1.52452000
H        0.78888600       3.17726600       1.08413300
H        2.05721700       4.15505600       2.83371200
H        1.67273700       2.62565500       3.49535500
Cu       3.20375600       2.53759700       2.04947200
18
Properties=species:S:1:pos:R:3 energy=-1967.132533106104 pbc="F F F"
C       -2.99095700       1.81388700       1.61345800
C       -1.90736000       2.66701000       1.51014400
C       -0.73023400       2.40350600       2.23447100
C       -0.65969600       1.26654800       3.06126800
C       -1.74709800       0.42257100       3.15860900
C       -2.91127400       0.69236200       2.43463900
H       -3.89682900       2.01812800       1.05762500
H       -3.75808600       0.02279500       2.51526800
H       -1.95552600       3.54188100       0.87355200
H        0.23839700       1.03999600       3.62213100
H       -1.69692700      -0.45128900       3.79510700
C        0.38068800       3.33509300       2.08660600
N        1.56591000       3.27456800       2.87205600
H        0.20414400       4.29302000       1.58198000
H        0.80059500       3.13694900       1.06598400
H        2.09674100       4.12570600       3.00923700
H        1.64389200       2.60577700       3.62881400
Cu       3.28069300       2.49100300       2.28585700
18
Properties=species:S:1:pos:R:3 energy=-1967.1475337885 pbc="F F F"
C       -2.99095700       1.81388700       1.61345800
C       -1.90736000       2.66701000       1.51014400
C       -0.73023400       2.40350600       2.23447100
C       -0.65969600       1.26654800       3.06126800
C       -1.74709800       0.42257100       3.15860900
C       -2.91127400       0.69236200       2.43463900
H       -3.89747000       2.01830500       1.05821400
H       -3.75853300       0.02333100       2.51624100
H       -1.95596300       3.54291800       0.87444600
H        0.23897800       1.04069800       3.62111600
H       -1.69784000      -0.45184100       3.79496300
C        0.40874100       3.33414900       2.08681300
N        1.55839200       3.25391600       2.97350500
H        0.23735900       4.32929100       1.65368800
H        0.83226900       3.09601400       1.07442300
H        2.07351000       4.10197400       3.16375200
H        1.55743900       2.58939500       3.73453500
Cu       3.29945800       2.44834400       2.50202300
18
Properties=species:S:1:pos:R:3 energy=-1967.158720572779 pbc="F F F"
C       -2.99095700       1.81388700       1.61345800
C       -1.90736000       2.66701000       1.51014400
C       -0.73023400       2.40350600       2.23447100
C       -0.65969600       1.26654800       3.06126800
C       -1.74709800       0.42257100       3.15860900
C       -2.91127400       0.69236200       2.43463900
H       -3.89782700       2.01834700       1.05871900
H       -3.75880700       0.02374800       2.51696900
H       -1.95609300       3.54333900       0.87490500
H        0.23914000       1.03953300       3.61948100
H       -1.69857100      -0.45238000       3.79441200
C        0.42812200       3.33234700       2.07966900
N        1.52831500       3.24661400       3.05162700
H        0.24520100       4.35245400       1.72229000
H        0.86413100       3.06591700       1.08823400
H        2.01217900       4.10038400       3.28918100
H        1.45628900       2.58938200       3.81461400
Cu       3.29175200       2.43653500       2.68461700
18
Properties=species:S:1:pos:R:3 energy=-1967.167489551437 pbc="F F F"
C       -2.99095700       1.81388700       1.61345800
C       -1.90736000       2.66701000       1.51014400
C       -0.73023400       2.40350600       2.23447100
C       -0.65969600       1.26654800       3.06126800
C       -1.74709800       0.42257100       3.15860900
C       -2.91127400       0.69236200       2.43463900
H       -3.89819700       2.01839500       1.05932800
H       -3.75902700       0.02410900       2.51758600
H       -1.95629800       3.54381000       0.87559600
H        0.23896300       1.03642200       3.61800600
H       -1.69906100      -0.45289300       3.79374200
C        0.43730200       3.33438300       2.06621700
N        1.48602900       3.26755000       3.10534500
H        0.21874800       4.36740900       1.78247300
H        0.89354000       3.05064900       1.10010000
H        1.91795600       4.13846100       3.37855000
H        1.35859800       2.62258100       3.87150800
Cu       3.27474600       2.48372400       2.82748200
18
Properties=species:S:1:pos:R:3 energy=-1967.174061403586 pbc="F F F"
C       -2.99095700       1.81388700       1.61345800
C       -1.90736000       2.66701000       1.51014400
C       -0.73023400       2.40350600       2.23447100
C       -0.65969600       1.26654800       3.06126800
C       -1.74709800       0.42257100       3.15860900
C       -2.91127400       0.69236200       2.43463900
H       -3.89866400       2.01841800       1.06007400
H       -3.75923100       0.02443000       2.51809600
H       -1.95666300       3.54448600       0.87664200
H        0.23897400       1.03281500       3.61672600
H       -1.69929900      -0.45328600       3.79316100
C        0.44005600       3.33819900       2.05188100
N        1.43654000       3.30673600       3.14590500
H        0.16965800       4.37246900       1.83427900
H        0.92507700       3.04453400       1.11278900
H        1.79995700       4.20096000       3.44426600
H        1.25965100       2.67958500       3.91760700
Cu       3.25029600       2.56820400       2.94834600
18
Properties=species:S:1:pos:R:3 energy=-1967.178514325897 pbc="F F F"
C       -2.99095700       1.81388700       1.61345800
C       -1.90736000       2.66701000       1.51014400
C       -0.73023400       2.40350600       2.23447100
C       -0.65969600       1.26654800       3.06126800
C       -1.74709800       0.42257100       3.15860900
C       -2.91127400       0.69236200       2.43463900
H       -3.89927100       2.01849000       1.06105600
H       -3.75944300       0.02474700       2.51853200
H       -1.95737400       3.54568100       0.87843500
H        0.23935400       1.03008700       3.61570300
H       -1.69939400      -0.45346400       3.79288200
C        0.43994800       3.34325500       2.04342800
N        1.38337600       3.35557900       3.18582600
H        0.11138600       4.36827800       1.87619800
H        0.96241600       3.04330600       1.13359500
H        1.66539000       4.27428800       3.50027400
H        1.15217400       2.75364900       3.96441700
Cu       3.21778200       2.66831800       3.06599200
18
Properties=species:S:1:pos:R:3 energy=-1967.181338893719 pbc="F F F"
C       -2.99095700       1.81388700       1.61345800
C       -1.90736000       2.66701000       1.51014400
C       -0.73023400       2.40350600       2.23447100
C       -0.65969600       1.26654800       3.06126800
C       -1.74709800       0.42257100       3.15860900
C       -2.91127400       0.69236200       2.43463900
H       -3.89984300       2.01853000       1.06198600
H       -3.75960700       0.02497900       2.51877300
H       -1.95819300       3.54698900       0.88037400
H        0.24090200       1.02832800       3.61325400
H       -1.69928300      -0.45369800       3.79255400
C        0.44144200       3.34609600       2.04217900
N        1.33422000       3.40459600       3.22787800
H        0.06353600       4.35589800       1.89348100
H        1.00617700       3.03349600       1.16662200
H        1.53292900       4.34563200       3.54353700
H        1.03441500       2.84265100       4.01479700
Cu       3.17786500       2.75134900       3.18790500
18
Properties=species:S:1:pos:R:3 energy=-1967.183303494927 pbc="F F F"
C       -2.99095700       1.81388700       1.61345800
C       -1.90736000       2.66701000       1.51014400
C       -0.73023400       2.40350600       2.23447100
C       -0.65969600       1.26654800       3.06126800
C       -1.74709800       0.42257100       3.15860900
C       -2.91127400       0.69236200       2.43463900
H       -3.90004700       2.01828800       1.06224100
H       -3.75966300       0.02503400       2.51868700
H       -1.95847200       3.54737800       0.88094400
H        0.24424800       1.02752200       3.60827200
H       -1.69894400      -0.45418700       3.79190200
C        0.44673800       3.34152700       2.04014200
N        1.30240700       3.44676400       3.25695400
H        0.04230300       4.33672500       1.86720200
H        1.04888900       3.00129200       1.20204800
H        1.43345300       4.40844700       3.54996800
H        0.92289600       2.94739000       4.05441500
Cu       3.13864700       2.79021500       3.28918300
18
Properties=species:S:1:pos:R:3 energy=-1967.184830329585 pbc="F F F"
C       -2.99095700       1.81388700       1.61345800
C       -1.90736000       2.66701000       1.51014400
C       -0.73023400       2.40350600       2.23447100
C       -0.65969600       1.26654800       3.06126800
C       -1.74709800       0.42257100       3.15860900
C       -2.91127400       0.69236200       2.43463900
H       -3.89981000       2.01783400       1.06172500
H       -3.75965500       0.02498700       2.51840100
H       -1.95815200       3.54671500       0.87996300
H        0.24701800       1.03111800       3.60534800
H       -1.69901600      -0.45405400       3.79216300
C        0.45427900       3.32897200       2.03496600
N        1.28872800       3.48190800       3.26938100
H        0.05265200       4.31150900       1.79551700
H        1.08486300       2.94812200       1.23492700
H        1.37980900       4.46402300       3.51408200
H        0.82660400       3.06910500       4.07622200
Cu       3.10115000       2.78095300       3.36720100
18
Properties=species:S:1:pos:R:3 energy=-1967.185919021031 pbc="F F F"
C       -2.99095700       1.81388700       1.61345800
C       -1.90736000       2.66701000       1.51014400
C       -0.73023400       2.40350600       2.23447100
C       -0.65969600       1.26654800       3.06126800
C       -1.74709800       0.42257100       3.15860900
C       -2.91127400       0.69236200       2.43463900
H       -3.89967600       2.01801000       1.06161400
H       -3.75959400       0.02486800       2.51804800
H       -1.95879800       3.54738500       0.88094700
H        0.24725100       1.04076000       3.60903300
H       -1.69975700      -0.45304300       3.79367700
C        0.45441300       3.32408500       2.04771700
N        1.24059700       3.53927100       3.31019800
H        0.07956200       4.28655300       1.70458900
H        1.12555200       2.90433900       1.29918300
H        1.31409400       4.54036100       3.48373600
H        0.68887400       3.22239600       4.10741900
Cu       3.01845600       2.78394400       3.52984400
18
Properties=species:S:1:pos:R:3 energy=-1967.186575840198 pbc="F F F"
C       -2.99095700       1.81388700       1.61345800
C       -1.90736000       2.66701000       1.51014400
C       -0.73023400       2.40350600       2.23447100
C       -0.65969600       1.26654800       3.06126800
C       -1.74709800       0.42257100       3.15860900
C       -2.91127400       0.69236200       2.43463900
H       -3.89947300       2.01817400       1.06134200
H       -3.75941100       0.02457800       2.51760300
H       -1.95920000       3.54781600       0.88170600
H        0.24685700       1.04919400       3.61297600
H       -1.70004000      -0.45289300       3.79393800
C        0.45208400       3.32261500       2.07141600
N        1.17226900       3.58763000       3.36514200
H        0.12214700       4.26545700       1.63816200
H        1.16318700       2.87746100       1.37346300
H        1.26677600       4.59662100       3.47760300
H        0.55060500       3.33970600       4.13621000
Cu       2.90420800       2.77654000       3.72353500
18
Properties=species:S:1:pos:R:3 energy=-1967.187003303848 pbc="F F F"
C       -2.99095700       1.81388700       1.61345800
C       -1.90736000       2.66701000       1.51014400
C       -0.73023400       2.40350600       2.23447100
C       -0.65969600       1.26654800       3.06126800
C       -1.74709800       0.42257100       3.15860900
C       -2.91127400       0.69236200       2.43463900
H       -3.89900900       2.01772800       1.06041300
H       -3.75911500       0.02414000       2.51708100
H       -1.95816400       3.54660000       0.88003300
H        0.24776300       1.05184300       3.61257200
H       -1.69961700      -0.45396700       3.79244400
C        0.45374800       3.31748300       2.08458000
N        1.12076300       3.62213600       3.39744300
H        0.16359000       4.24632100       1.59501500
H        1.19162700       2.85304700       1.42685200
H        1.26042500       4.62908500       3.46417700
H        0.45909800       3.42256700       4.14773200
Cu       2.80408300       2.75755200       3.86178900
18
Properties=species:S:1:pos:R:3 energy=-1967.187512892438 pbc="F F F"
C       -2.99095700       1.81388700       1.61345800
C       -1.90736000       2.66701000       1.51014400
C       -0.73023400       2.40350600       2.23447100
C       -0.65969600       1.26654800       3.06126800
C       -1.74709800       0.42257100       3.15860900
C       -2.91127400       0.69236200       2.43463900
H       -3.89853700       2.01706400       1.05941000
H       -3.75883200       0.02373100       2.51666100
H       -1.95658500       3.54520100       0.87804300
H        0.24885900       1.05348600       3.61177300
H       -1.69942900      -0.45493000       3.79112800
C        0.45668500       3.31187500       2.09455700
N        1.05515100       3.67369800       3.42536500
H        0.20169000       4.22232100       1.55267100
H        1.22732200       2.82486100       1.49346400
H        1.25438100       4.67120700       3.43777800
H        0.34592500       3.53948900       4.14399500
Cu       2.66553500       2.74587100       4.01915800
18
Properties=species:S:1:pos:R:3 energy=-1967.188184560959 pbc="F F F"
C       -2.99095700       1.81388700       1.61345800
C       -1.90736000       2.66701000       1.51014400
C       -0.73023400       2.40350600       2.23447100
C       -0.65969600       1.26654800       3.06126800
C       -1.74709800       0.42257100       3.15860900
C       -2.91127400       0.69236200       2.43463900
H       -3.89837500       2.01666100       1.05903000
H       -3.75857100       0.02336900       2.51635000
H       -1.95573200       3.54552300       0.87849200
H        0.24912900       1.05458700       3.61190400
H       -1.69964800      -0.45549800       3.79038600
C        0.45583800       3.31546800       2.11547500
N        0.95445600       3.74965000       3.46623000
H        0.22756100       4.20470800       1.52809700
H        1.27070600       2.81318200       1.59287400
H        1.22029700       4.72913700       3.42933900
H        0.18592700       3.68757600       4.12923900
Cu       2.46030400       2.76262300       4.22312800
18
Properties=species:S:1:pos:R:3 energy=-1967.188808689062 pbc="F F F"
C       -2.99095700       1.81388700       1.61345800
C       -1.90736000       2.66701000       1.51014400
C       -0.73023400       2.40350600       2.23447100
C       -0.65969600       1.26654800       3.06126800
C       -1.74709800       0.42257100       3.15860900
C       -2.91127400       0.69236200       2.43463900
H       -3.89794200       2.01566500       1.05799400
H       -3.75816800       0.02278900       2.51568000
H       -1.95436700       3.54513600       0.87783700
H        0.25031500       1.05044300       3.60847100
H       -1.69947900      -0.45652900       3.78896000
C        0.45234000       3.32423900       2.12101700
N        0.86200300       3.84884200       3.47139300
H        0.22485900       4.18597900       1.49396600
H        1.30479700       2.81155100       1.67780800
H        1.18347200       4.80737200       3.38390100
H        0.04758900       3.85926200       4.07873100
Cu       2.26668300       2.83787200       4.37751800
18
Properties=species:S:1:pos:R:3 energy=-1967.189468017426 pbc="F F F"
C       -2.99095700       1.81388700       1.61345800
C       -1.90736000       2.66701000       1.51014400
C       -0.73023400       2.40350600       2.23447100
C       -0.65969600       1.26654800       3.06126800
C       -1.74709800       0.42257100       3.15860900
C       -2.91127400       0.69236200       2.43463900
H       -3.89717000       2.01438300       1.05626900
H       -3.75775500       0.02217300       2.51483900
H       -1.95257300       3.54304400       0.87487700
H        0.25185400       1.04835000       3.60561400
H       -1.69916700      -0.45732100       3.78782500
C        0.45177300       3.32313300       2.11449100
N        0.78806500       3.95097800       3.44349700
H        0.24820900       4.13768700       1.41952900
H        1.33206000       2.79168200       1.75583600
H        1.16727600       4.88094300       3.29483700
H       -0.06842600       4.05096100       3.98092600
Cu       2.07433900       2.93993800       4.51186100
18
Properties=species:S:1:pos:R:3 energy=-1967.190092944506 pbc="F F F"
C       -2.99095700       1.81388700       1.61345800
C       -1.90736000       2.66701000       1.51014400
C       -0.73023400       2.40350600       2.23447100
C       -0.65969600       1.26654800       3.06126800
C       -1.74709800       0.42257100       3.15860900
C       -2.91127400       0.69236200       2.43463900
H       -3.89635700       2.01300700       1.05445400
H       -3.75739700       0.02164100       2.51410500
H       -1.95069000       3.54083800       0.87178700
H        0.25315800       1.04539700       3.60276800
H       -1.69890700      -0.45801200       3.78682700
C        0.45010100       3.32371100       2.10426300
N        0.71564100       4.05684000       3.39792200
H        0.26581600       4.08555700       1.34681100
H        1.35463900       2.78207800       1.83145300
H        1.15134000       4.95223100       3.19623500
H       -0.17384900       4.23808500       3.85494900
Cu       1.87699800       3.06811800       4.61971700
18
Properties=species:S:1:pos:R:3 energy=-1967.190525780711 pbc="F F F"
C       -2.99095700       1.81388700       1.61345800
C       -1.90736000       2.66701000       1.51014400
C       -0.73023400       2.40350600       2.23447100
C       -0.65969600       1.26654800       3.06126800
C       -1.74709800       0.42257100       3.15860900
C       -2.91127400       0.69236200       2.43463900
H       -3.89592300       2.01215600       1.05342800
H       -3.75755900       0.02189000       2.51442300
H       -1.95017900       3.54057900       0.87145700
H        0.25177600       1.04557100       3.60638500
H       -1.69955500      -0.45717800       3.78801300
C        0.43594100       3.34131200       2.10603700
N        0.61529400       4.16492100       3.36297300
H        0.25841200       4.05244000       1.29926200
H        1.37004800       2.81351600       1.91842300
H        1.09697000       5.03024400       3.13149200
H       -0.30347800       4.40355400       3.72752000
Cu       1.64922300       3.20857300       4.71769100
18
Properties=species:S:1:pos:R:3 energy=-1967.189123078107 pbc="F F F"
C       -2.99095700       1.81388700       1.61345800
C       -1.90736000       2.66701000       1.51014400
C       -0.73023400       2.40350600       2.23447100
C       -0.65969600       1.26654800       3.06126800
C       -1.74709800       0.42257100       3.15860900
C       -2.91127400       0.69236200       2.43463900
H       -3.89580500       2.01156900       1.05297600
H       -3.75571400       0.01913200       2.51089900
H       -1.95142300       3.53947100       0.86898500
H        0.26884200       1.06325000       3.59054400
H       -1.69799900      -0.45844900       3.78609200
C        0.50707900       3.23365500       2.19265200
N        0.64680700       3.96688800       3.49453900
H        0.52386200       3.95309900       1.37079000
H        1.36775900       2.59620700       2.05380000
H        1.24642200       4.76817400       3.34598500
H       -0.27487300       4.31169900       3.73693100
Cu       1.35487200       2.92126400       4.98948700
18
Properties=species:S:1:pos:R:3 energy=-1967.191146385687 pbc="F F F"
C       -2.99095700       1.81388700       1.61345800
C       -1.90736000       2.66701000       1.51014400
C       -0.73023400       2.40350600       2.23447100
C       -0.65969600       1.26654800       3.06126800
C       -1.74709800       0.42257100       3.15860900
C       -2.91127400       0.69236200       2.43463900
H       -3.89574300       2.01135900       1.05280900
H       -3.75630700       0.02003400       2.51203800
H       -1.95194900       3.54054500       0.87060600
H        0.26447000       1.05882300       3.59481700
H       -1.69811700      -0.45836800       3.78619300
C        0.47725100       3.28153300       2.19461200
N        0.53418200       4.10666800       3.45222600
H        0.47063300       3.95613900       1.33608800
H        1.37782600       2.68465400       2.13400000
H        1.15420500       4.89183000       3.28985400
H       -0.39814700       4.47423400       3.61108300
Cu       1.14615400       3.11585400       5.02407600
18
Properties=species:S:1:pos:R:3 energy=-1967.192120473958 pbc="F F F"
C       -2.99095700       1.81388700       1.61345800
C       -1.90736000       2.66701000       1.51014400
C       -0.73023400       2.40350600       2.23447100
C       -0.65969600       1.26654800       3.06126800
C       -1.74709800       0.42257100       3.15860900
C       -2.91127400       0.69236200       2.43463900
H       -3.89551700       2.01093500       1.05231900
H       -3.75651900       0.02037400       2.51244300
H       -1.95210000       3.54063400       0.87061700
H        0.26336600       1.05704900       3.59544600
H       -1.69798200      -0.45860500       3.78585800
C        0.46053400       3.30598700       2.20558100
N        0.43354800       4.20389900       3.41552300
H        0.47046400       3.93222100       1.31121900
H        1.37897700       2.73236800       2.22915900
H        1.09529100       4.95805800       3.26496900
H       -0.49582600       4.60943300       3.46789700
Cu       0.87697400       3.25814200       5.06933500
18
Properties=species:S:1:pos:R:3 energy=-1967.192764756798 pbc="F F F"
C       -2.99095700       1.81388700       1.61345800
C       -1.90736000       2.66701000       1.51014400
C       -0.73023400       2.40350600       2.23447100
C       -0.65969600       1.26654800       3.06126800
C       -1.74709800       0.42257100       3.15860900
C       -2.91127400       0.69236200       2.43463900
H       -3.89545800       2.01080200       1.05219700
H       -3.75672200       0.02069600       2.51284400
H       -1.95268600       3.54126000       0.87138000
H        0.26256600       1.05677900       3.59655800
H       -1.69800700      -0.45863400       3.78583300
C        0.44480100       3.32713200       2.22372000
N        0.32938200       4.28553400       3.38197600
H        0.48668300       3.90686100       1.29931400
H        1.37216500       2.77731600       2.33301700
H        1.03256400       5.00830600       3.26472300
H       -0.58518200       4.72337100       3.32069300
Cu       0.57656400       3.38140400       5.09901800
18
Properties=species:S:1:pos:R:3 energy=-1967.193618581691 pbc="F F F"
C       -2.99095700       1.81388700       1.61345800
C       -1.90736000       2.66701000       1.51014400
C       -0.73023400       2.40350600       2.23447100
C       -0.65969600       1.26654800       3.06126800
C       -1.74709800       0.42257100       3.15860900
C       -2.91127400       0.69236200       2.43463900
H       -3.89572800       2.01169700       1.05306100
H       -3.75683800       0.02090200       2.51289300
H       -1.95379200       3.54186400       0.87199500
H        0.25795400       1.05573100       3.60091600
H       -1.69864300      -0.45795600       3.78697100
C        0.42132200       3.36262200       2.22430500
N        0.25646500       4.36316000       3.34030000
H        0.47927500       3.89863000       1.27480600
H        1.35803600       2.83725600       2.39583700
H        0.99883000       5.05423600       3.26481900
H       -0.62771700       4.84406300       3.19635000
Cu       0.32138000       3.48277300       5.08416500
18
Properties=species:S:1:pos:R:3 energy=-1967.194165241023 pbc="F F F"
C       -2.99095700       1.81388700       1.61345800
C       -1.90736000       2.66701000       1.51014400
C       -0.73023400       2.40350600       2.23447100
C       -0.65969600       1.26654800       3.06126800
C       -1.74709800       0.42257100       3.15860900
C       -2.91127400       0.69236200       2.43463900
H       -3.89572400       2.01182600       1.05307700
H       -3.75684600       0.02091600       2.51276900
H       -1.95375500       3.54089200       0.87066800
H        0.25633300       1.05389400       3.60200200
H       -1.69843100      -0.45824300       3.78652800
C        0.40943600       3.38054400       2.21670200
N        0.20298400       4.42317400       3.28384900
H        0.48800500       3.87093100       1.24469700
H        1.34659000       2.87422200       2.44488000
H        0.98347600       5.07610300       3.25811700
H       -0.63757300       4.94849900       3.05456200
Cu       0.06705000       3.57803100       5.03974300
18
Properties=species:S:1:pos:R:3 energy=-1967.19447299945 pbc="F F F"
C       -2.99095700       1.81388700       1.61345800
C       -1.90736000       2.66701000       1.51014400
C       -0.73023400       2.40350600       2.23447100
C       -0.65969600       1.26654800       3.06126800
C       -1.74709800       0.42257100       3.15860900
C       -2.91127400       0.69236200       2.43463900
H       -3.89583800       2.01199000       1.05328600
H       -3.75673000       0.02074500       2.51244000
H       -1.95380900       3.54009700       0.86959900
H        0.25588500       1.05080100       3.60030500
H       -1.69772800      -0.45903200       3.78530500
C        0.40417600       3.39020700       2.20848100
N        0.16549000       4.47311300       3.22391300
H        0.50813800       3.83513100       1.21749500
H        1.33661600       2.89878400       2.48651800
H        0.97977500       5.08348100       3.25591000
H       -0.61968300       5.04076200       2.91280500
Cu      -0.18253300       3.68098600       4.97470700
18
Properties=species:S:1:pos:R:3 energy=-1967.1946808559 pbc="F F F"
C       -2.99095700       1.81388700       1.61345800
C       -1.90736000       2.66701000       1.51014400
C       -0.73023400       2.40350600       2.23447100
C       -0.65969600       1.26654800       3.06126800
C       -1.74709800       0.42257100       3.15860900
C       -2.91127400       0.69236200       2.43463900
H       -3.89610700       2.01227800       1.05377900
H       -3.75680200       0.02084100       2.51254600
H       -1.95434900       3.54032800       0.87003800
H        0.25415500       1.05143500       3.60248000
H       -1.69762500      -0.45870600       3.78568100
C        0.40134900       3.39565000       2.20239200
N        0.13420500       4.50907000       3.17141700
H        0.53100300       3.80315200       1.19856300
H        1.32895500       2.91821100       2.51813400
H        0.97194100       5.07828700       3.27278000
H       -0.58822200       5.11581800       2.78951400
Cu      -0.42892900       3.77277500       4.89064400
18
Properties=species:S:1:pos:R:3 energy=-1967.194836405374 pbc="F F F"
C       -2.99095700       1.81388700       1.61345800
C       -1.90736000       2.66701000       1.51014400
C       -0.73023400       2.40350600       2.23447100
C       -0.65969600       1.26654800       3.06126800
C       -1.74709800       0.42257100       3.15860900
C       -2.91127400       0.69236200       2.43463900
H       -3.89599500       2.01200300       1.05347200
H       -3.75653000       0.02040400       2.51192900
H       -1.95360800       3.53923200       0.86863600
H        0.25487900       1.05019500       3.60067800
H       -1.69708200      -0.45912100       3.78502500
C        0.41355200       3.38094100       2.17967000
N        0.18437000       4.49196500       3.15684400
H        0.52852800       3.79027500       1.17478900
H        1.34300000       2.88991800       2.46634000
H        1.03283500       5.04472600       3.25561000
H       -0.52855100       5.12105700       2.79350800
Cu      -0.39145000       3.77270400       4.87994900
18
Properties=species:S:1:pos:R:3 energy=-1967.194955292717 pbc="F F F"
C       -2.99095700       1.81388700       1.61345800
C       -1.90736000       2.66701000       1.51014400
C       -0.73023400       2.40350600       2.23447100
C       -0.65969600       1.26654800       3.06126800
C       -1.74709800       0.42257100       3.15860900
C       -2.91127400       0.69236200       2.43463900
H       -3.89565300       2.01125700       1.05264100
H       -3.75588000       0.01941600       2.51055300
H       -1.95244300       3.53800000       0.86703500
H        0.25674700       1.05017300       3.59864900
H       -1.69656400      -0.45944000       3.78451100
C        0.42934700       3.35951700       2.16415300