
                                 *****************
                                 * O   R   C   A *
                                 *****************

                                            #,                                       
                                            ###                                      
                                            ####                                     
                                            #####                                    
                                            ######                                   
                                           ########,                                 
                                     ,,################,,,,,                         
                               ,,#################################,,                 
                          ,,##########################################,,             
                       ,#########################################, ''#####,          
                    ,#############################################,,   '####,        
                  ,##################################################,,,,####,       
                ,###########''''           ''''###############################       
              ,#####''   ,,,,##########,,,,          '''####'''          '####       
            ,##' ,,,,###########################,,,                        '##       
           ' ,,###''''                  '''############,,,                           
         ,,##''                                '''############,,,,        ,,,,,,###''
      ,#''                                            '''#######################'''  
     '                                                          ''''####''''         
             ,#######,   #######,   ,#######,      ##                                
            ,#'     '#,  ##    ##  ,#'     '#,    #''#        ######   ,####,        
            ##       ##  ##   ,#'  ##            #'  '#       #        #'  '#        
            ##       ##  #######   ##           ,######,      #####,   #    #        
            '#,     ,#'  ##    ##  '#,     ,#' ,#      #,         ##   #,  ,#        
             '#######'   ##     ##  '#######'  #'      '#     #####' # '####'        



                  #######################################################
                  #                        -***-                        #
                  #          Department of theory and spectroscopy      #
                  #    Directorship and core code : Frank Neese         #
                  #        Max Planck Institute fuer Kohlenforschung    #
                  #                Kaiser Wilhelm Platz 1               #
                  #                 D-45470 Muelheim/Ruhr               #
                  #                      Germany                        #
                  #                                                     #
                  #                  All rights reserved                #
                  #                        -***-                        #
                  #######################################################


                         Program Version 5.0.3 -  RELEASE  -


 With contributions from (in alphabetic order):
   Daniel Aravena         : Magnetic Suceptibility
   Michael Atanasov       : Ab Initio Ligand Field Theory (pilot matlab implementation)
   Alexander A. Auer      : GIAO ZORA, VPT2 properties, NMR spectrum
   Ute Becker             : Parallelization
   Giovanni Bistoni       : ED, misc. LED, open-shell LED, HFLD
   Martin Brehm           : Molecular dynamics
   Dmytro Bykov           : SCF Hessian
   Vijay G. Chilkuri      : MRCI spin determinant printing, contributions to CSF-ICE
   Dipayan Datta          : RHF DLPNO-CCSD density
   Achintya Kumar Dutta   : EOM-CC, STEOM-CC
   Dmitry Ganyushin       : Spin-Orbit,Spin-Spin,Magnetic field MRCI
   Miquel Garcia          : C-PCM and meta-GGA Hessian, CC/C-PCM, Gaussian charge scheme
   Yang Guo               : DLPNO-NEVPT2, F12-NEVPT2, CIM, IAO-localization
   Andreas Hansen         : Spin unrestricted coupled pair/coupled cluster methods
   Benjamin Helmich-Paris : MC-RPA, TRAH-SCF, COSX integrals
   Lee Huntington         : MR-EOM, pCC
   Robert Izsak           : Overlap fitted RIJCOSX, COSX-SCS-MP3, EOM
   Marcus Kettner         : VPT2
   Christian Kollmar      : KDIIS, OOCD, Brueckner-CCSD(T), CCSD density, CASPT2, CASPT2-K
   Simone Kossmann        : Meta GGA functionals, TD-DFT gradient, OOMP2, MP2 Hessian
   Martin Krupicka        : Initial AUTO-CI
   Lucas Lang             : DCDCAS
   Marvin Lechner         : AUTO-CI (C++ implementation), FIC-MRCC
   Dagmar Lenk            : GEPOL surface, SMD
   Dimitrios Liakos       : Extrapolation schemes; Compound Job, initial MDCI parallelization
   Dimitrios Manganas     : Further ROCIS development; embedding schemes
   Dimitrios Pantazis     : SARC Basis sets
   Anastasios Papadopoulos: AUTO-CI, single reference methods and gradients
   Taras Petrenko         : DFT Hessian,TD-DFT gradient, ASA, ECA, R-Raman, ABS, FL, XAS/XES, NRVS
   Peter Pinski           : DLPNO-MP2, DLPNO-MP2 Gradient
   Christoph Reimann      : Effective Core Potentials
   Marius Retegan         : Local ZFS, SOC
   Christoph Riplinger    : Optimizer, TS searches, QM/MM, DLPNO-CCSD(T), (RO)-DLPNO pert. Triples
   Tobias Risthaus        : Range-separated hybrids, TD-DFT gradient, RPA, STAB
   Michael Roemelt        : Original ROCIS implementation
   Masaaki Saitow         : Open-shell DLPNO-CCSD energy and density
   Barbara Sandhoefer     : DKH picture change effects
   Avijit Sen             : IP-ROCIS
   Kantharuban Sivalingam : CASSCF convergence, NEVPT2, FIC-MRCI
   Bernardo de Souza      : ESD, SOC TD-DFT
   Georgi Stoychev        : AutoAux, RI-MP2 NMR, DLPNO-MP2 response
   Willem Van den Heuvel  : Paramagnetic NMR
   Boris Wezisla          : Elementary symmetry handling
   Frank Wennmohs         : Technical directorship


 We gratefully acknowledge several colleagues who have allowed us to
 interface, adapt or use parts of their codes:
   Stefan Grimme, W. Hujo, H. Kruse, P. Pracht,  : VdW corrections, initial TS optimization,
                  C. Bannwarth, S. Ehlert          DFT functionals, gCP, sTDA/sTD-DF
   Ed Valeev, F. Pavosevic, A. Kumar             : LibInt (2-el integral package), F12 methods
   Garnet Chan, S. Sharma, J. Yang, R. Olivares  : DMRG
   Ulf Ekstrom                                   : XCFun DFT Library
   Mihaly Kallay                                 : mrcc  (arbitrary order and MRCC methods)
   Jiri Pittner, Ondrej Demel                    : Mk-CCSD
   Frank Weinhold                                : gennbo (NPA and NBO analysis)
   Christopher J. Cramer and Donald G. Truhlar   : smd solvation model
   Lars Goerigk                                  : TD-DFT with DH, B97 family of functionals
   V. Asgeirsson, H. Jonsson                     : NEB implementation
   FAccTs GmbH                                   : IRC, NEB, NEB-TS, DLPNO-Multilevel, CI-OPT
                                                   MM, QMMM, 2- and 3-layer-ONIOM, Crystal-QMMM,
                                                   LR-CPCM, SF, NACMEs, symmetry and pop. for TD-DFT,
                                                   nearIR, NL-DFT gradient (VV10), updates on ESD,
                                                   ML-optimized integration grids
   S Lehtola, MJT Oliveira, MAL Marques          : LibXC Library
   Liviu Ungur et al                             : ANISO software


 Your calculation uses the libint2 library for the computation of 2-el integrals
 For citations please refer to: http://libint.valeyev.net

 Your ORCA version has been built with support for libXC version: 5.1.0
 For citations please refer to: https://tddft.org/programs/libxc/

 This ORCA versions uses:
   CBLAS   interface :  Fast vector & matrix operations
   LAPACKE interface :  Fast linear algebra routines
   SCALAPACK package :  Parallel linear algebra routines
   Shared memory     :  Shared parallel matrices
   BLAS/LAPACK       :  OpenBLAS 0.3.15  USE64BITINT DYNAMIC_ARCH NO_AFFINITY Haswell SINGLE_THREADED
        Core in use  :  Haswell
   Copyright (c) 2011-2014, The OpenBLAS Project




***************************************
The coordinates will be read from file: reactant.xyz
***************************************


Your calculation utilizes the atom-pairwise dispersion correction
with the Becke-Johnson damping scheme (D3BJ)
Cite in your paper:
S.Grimme, S.Ehrlich, L.Goerigk, J Comput Chem, (2011), 32, 1456–1465 
S.Grimme, J.Antony, S.Ehrlich and H.Krieg, J.Chem.Phys., 132, (2010), 154104 
   

================================================================================

----- Orbital basis set information -----
Your calculation utilizes the basis: def2-TZVP
   F. Weigend and R. Ahlrichs, Phys. Chem. Chem. Phys. 7, 3297 (2005).

----- AuxJ basis set information -----
Your calculation utilizes the auxiliary basis: def2/J
   F. Weigend, Phys. Chem. Chem. Phys. 8, 1057 (2006).

================================================================================
                                        WARNINGS
                       Please study these warnings very carefully!
================================================================================


WARNING: Geometry Optimization
  ===> : Switching off AutoStart
         For restart on a previous wavefunction, please use MOREAD

INFO   : the flag for use of the SHARK integral package has been found!

================================================================================
                                       INPUT FILE
================================================================================
NAME = orca.inp
|  1> !B3LYP DEF2-TZVP D3BJ 
|  2> !OPT FREQ TIGHTOPT TightSCF defgrid2
|  3> %SCF
|  4>     MaxIter 2000       # Here setting MaxIter to a very high number. Intended for systems that require sometimes 1000 iterations before converging (very rare).
|  5>     DIISMaxEq 5        # Default value is 5. A value of 15-40 necessary for difficult systems.
|  6>     directresetfreq 15 # Default value is 15. A value of 1 (very expensive) is sometimes required. A value between 1 and 15 may be more cost-effective.
|  7> END
|  8> %CPCM EPSILON 6.02 REFRAC 1.3723 END
|  9> %PAL NPROCS 32 END
| 10> %maxcore 2000 # This indicates you want ORCA to use only 2GB per core maximum, so ORCA will use only 2GB*32=64GB of memory in total.
| 11> %GEOM
| 12>     Constraints
| 13>         {C 0 C}
| 14>         {C 1 C}
| 15>         {C 2 C}
| 16>         {C 3 C}
| 17>         {C 4 C}
| 18>         {C 5 C}
| 19>     END
| 20> END
| 21> * xyzfile 1 1 reactant.xyz 
| 22> 
| 23>                          ****END OF INPUT****
================================================================================

                       *****************************
                       * Geometry Optimization Run *
                       *****************************

Geometry optimization settings:
Update method            Update   .... BFGS
Choice of coordinates    CoordSys .... Z-matrix Internals
Initial Hessian          InHess   .... Almoef's Model

Convergence Tolerances:
Energy Change            TolE     ....  1.0000e-06 Eh
Max. Gradient            TolMAXG  ....  1.0000e-04 Eh/bohr
RMS Gradient             TolRMSG  ....  3.0000e-05 Eh/bohr
Max. Displacement        TolMAXD  ....  1.0000e-03 bohr
RMS Displacement         TolRMSD  ....  6.0000e-04 bohr
Strict Convergence                ....  False
------------------------------------------------------------------------------
                        ORCA OPTIMIZATION COORDINATE SETUP
------------------------------------------------------------------------------

The optimization will be done in new redundant internal coordinates
Making redundant internal coordinates   ...  (new redundants) done
Evaluating the initial hessian          ...  (Almloef) done
Evaluating the coordinates              ...  done
Calculating the B-matrix                .... done
Calculating the G-matrix                .... done
Diagonalizing the G-matrix              .... done
Imposing constraints:
 Iter   0:  RMS(Cart)=    0.0000000000 RMS(Int)=    0.0000000000
CONVERGED
Will constrain atom 0 coordinate 1 
Will constrain atom 0 coordinate 2 
Will constrain atom 0 coordinate 3 
Will constrain atom 1 coordinate 1 
Will constrain atom 1 coordinate 2 
Will constrain atom 1 coordinate 3 
Will constrain atom 2 coordinate 1 
Will constrain atom 2 coordinate 2 
Will constrain atom 2 coordinate 3 
Will constrain atom 3 coordinate 1 
Will constrain atom 3 coordinate 2 
Will constrain atom 3 coordinate 3 
Will constrain atom 4 coordinate 1 
Will constrain atom 4 coordinate 2 
Will constrain atom 4 coordinate 3 
Will constrain atom 5 coordinate 1 
Will constrain atom 5 coordinate 2 
Will constrain atom 5 coordinate 3 
Small eigenvalue found = 7.427e-03
Small eigenvalue found = 1.737e-02
The first mode is                       ....   68
The number of degrees of freedom        ....   54
Storing new coordinates                 .... done

    -----------------------------------------------------------------
                    Redundant Internal Coordinates


    -----------------------------------------------------------------
         Definition                    Initial Value    Approx d2E/dq
    -----------------------------------------------------------------
      1. B(C   1,C   0)                  1.3830         0.641084   
      2. B(C   2,C   1)                  1.4070         0.586923   
      3. B(C   3,C   2)                  1.4076         0.585751   
      4. B(C   4,C   3)                  1.3799         0.648336   
      5. B(C   5,C   0)                  1.3923         0.619534   
      6. B(C   5,C   4)                  1.3972         0.608440   
      7. B(H   6,C   0)                  1.0815         0.371589   
      8. B(H   7,C   5)                  1.0823         0.370453   
      9. B(H   8,C   1)                  1.0825         0.370193   
     10. B(H   9,C   3)                  1.0821         0.370770   
     11. B(H  10,C   4)                  1.0815         0.371467   
     12. B(C  11,C   2)                  1.4315         0.536369   
     13. B(N  12,C  11)                  1.3530         0.641151   
     14. B(H  13,C  11)                  1.0838         0.368378   
     15. B(H  14,C  11)                  1.1008         0.346102   
     16. B(H  15,N  12)                  1.0152         0.424518   
     17. B(H  16,N  12)                  1.0147         0.425377   
     18. B(Cu 17,N  12)                  1.9721         0.667371   
     19. B(Cu 17,H  15)                  2.1321         0.079246   
     20. B(Cu 17,H  16)                  2.1077         0.086674   
     21. A(C   1,C   0,H   6)          120.0443         0.356811   
     22. A(C   1,C   0,C   5)          119.7433         0.436629   
     23. A(C   5,C   0,H   6)          120.2124         0.354746   
     24. A(C   0,C   1,C   2)          120.1002         0.432400   
     25. A(C   2,C   1,H   8)          119.4194         0.351290   
     26. A(C   0,C   1,H   8)          120.4803         0.356583   
     27. A(C   1,C   2,C  11)          116.9065         0.418815   
     28. A(C   1,C   2,C   3)          119.7084         0.425455   
     29. A(C   3,C   2,C  11)          123.3851         0.418666   
     30. A(C   4,C   3,H   9)          119.1660         0.357360   
     31. A(C   2,C   3,H   9)          121.0998         0.351264   
     32. A(C   2,C   3,C   4)          119.7337         0.433120   
     33. A(C   3,C   4,C   5)          120.1278         0.436092   
     34. A(C   5,C   4,H  10)          119.9960         0.353642   
     35. A(C   3,C   4,H  10)          119.8759         0.357474   
     36. A(C   0,C   5,H   7)          119.8212         0.354562   
     37. A(C   4,C   5,H   7)          119.5930         0.353478   
     38. A(C   0,C   5,C   4)          120.5859         0.432541   
     39. A(C   2,C  11,N  12)          125.6541         0.422709   
     40. A(C   2,C  11,H  13)          118.3360         0.345712   
     41. A(N  12,C  11,H  13)          115.0618         0.354092   
     42. A(C   2,C  11,H  14)          107.8994         0.342113   
     43. A(N  12,C  11,H  14)           95.4137         0.350376   
     44. A(H  13,C  11,H  14)           73.9364         0.290068   
     45. A(C  11,N  12,H  15)          118.3844         0.359551   
     46. A(C  11,N  12,H  16)          120.6709         0.359675   
     47. A(H  15,N  12,H  16)          114.8116         0.301509   
     48. A(C  11,N  12,Cu 17)          125.1848         0.491591   
     49. A(H  15,N  12,Cu 17)           84.6422         0.405077   
     50. A(H  16,N  12,Cu 17)           83.1664         0.405222   
     51. A(N  12,H  15,Cu 17)           67.0586         0.267029   
     52. A(N  12,H  16,Cu 17)           68.2797         0.270759   
     53. A(N  12,Cu 17,H  15)           28.2992         0.353914   
     54. A(N  12,Cu 17,H  16)           28.5539         0.359341   
     55. A(H  15,Cu 17,H  16)           47.5729         0.241268   
     56. D(C   2,C   1,C   0,C   5)     -0.1293         0.028561   
     57. D(C   2,C   1,C   0,H   6)    179.9401         0.028561   
     58. D(H   8,C   1,C   0,C   5)    179.7556         0.028561   
     59. D(H   8,C   1,C   0,H   6)     -0.1750         0.028561   
     60. D(C  11,C   2,C   1,H   8)      0.3165         0.023694   
     61. D(C   3,C   2,C   1,H   8)   -179.7209         0.023694   
     62. D(C   3,C   2,C   1,C   0)      0.1653         0.023694   
     63. D(C  11,C   2,C   1,C   0)   -179.7973         0.023694   
     64. D(C   4,C   3,C   2,C  11)    179.7156         0.023595   
     65. D(C   4,C   3,C   2,C   1)     -0.2444         0.023595   
     66. D(H   9,C   3,C   2,C  11)     -0.5312         0.023595   
     67. D(H   9,C   3,C   2,C   1)    179.5087         0.023595   
     68. D(H  10,C   4,C   3,C   2)   -179.8834         0.029256   
     69. D(C   5,C   4,C   3,C   2)      0.2878         0.029256   
     70. D(C   5,C   4,C   3,H   9)   -179.4701         0.029256   
     71. D(H  10,C   4,C   3,H   9)      0.3587         0.029256   
     72. D(H   7,C   5,C   0,C   1)   -179.8159         0.026557   
     73. D(H   7,C   5,C   4,C   3)    179.7348         0.025560   
     74. D(C   4,C   5,C   0,H   6)   -179.8969         0.026557   
     75. D(H   7,C   5,C   0,H   6)      0.1146         0.026557   
     76. D(C   0,C   5,C   4,H  10)    179.9176         0.025560   
     77. D(C   4,C   5,C   0,C   1)      0.1727         0.026557   
     78. D(H   7,C   5,C   4,H  10)     -0.0938         0.025560   
     79. D(C   0,C   5,C   4,C   3)     -0.2537         0.025560   
     80. D(N  12,C  11,C   2,C   1)    175.9015         0.021317   
     81. D(N  12,C  11,C   2,C   3)     -4.0596         0.021317   
     82. D(H  13,C  11,C   2,C   1)      7.6299         0.021317   
     83. D(H  13,C  11,C   2,C   3)   -172.3312         0.021317   
     84. D(H  14,C  11,C   2,C   1)    -73.3841         0.021317   
     85. D(H  14,C  11,C   2,C   3)    106.6549         0.021317   
     86. D(H  15,N  12,C  11,C   2)   -157.3234         0.039165   
     87. D(Cu 17,N  12,C  11,H  14)    -18.4767         0.039165   
     88. D(H  15,N  12,C  11,H  14)     86.0658         0.039165   
     89. D(H  16,N  12,C  11,C   2)     -6.2763         0.039165   
     90. D(H  16,N  12,C  11,H  13)    162.3323         0.039165   
     91. D(H  16,N  12,C  11,H  14)   -122.8871         0.039165   
     92. D(Cu 17,N  12,C  11,C   2)     98.1342         0.039165   
     93. D(H  15,N  12,C  11,H  13)     11.2852         0.039165   
     94. D(Cu 17,N  12,C  11,H  13)    -93.2573         0.039165   
     95. D(Cu 17,H  15,N  12,C  11)   -127.3840         0.228400   
     96. D(Cu 17,H  15,N  12,H  16)     79.9203         0.228400   
     97. D(Cu 17,H  16,N  12,C  11)    127.1319         0.229568   
     98. D(Cu 17,H  16,N  12,H  15)    -80.8507         0.229568   
     99. D(H  15,Cu 17,N  12,C  11)    121.2039         0.003533   
    100. D(H  15,Cu 17,N  12,H  16)   -115.8319         0.003533   
    101. D(H  16,Cu 17,N  12,C  11)   -122.9642         0.003533   
    102. D(H  16,Cu 17,N  12,H  15)    115.8319         0.003533   
    103. D(H  16,Cu 17,H  15,N  12)    -35.6513         0.001629   
    104. D(H  15,Cu 17,H  16,N  12)     35.3159         0.001655   
    105. C_1(C   0)                      1.8139         1.000000 C 
    106. C_0(C   0)                     -2.9910         1.000000 C 
    107. C_2(C   0)                      1.6135         1.000000 C 
    108. C_1(C   1)                      2.6670         1.000000 C 
    109. C_2(C   1)                      1.5101         1.000000 C 
    110. C_0(C   1)                     -1.9074         1.000000 C 
    111. C_2(C   2)                      2.2345         1.000000 C 
    112. C_1(C   2)                      2.4035         1.000000 C 
    113. C_0(C   2)                     -0.7302         1.000000 C 
    114. C_0(C   3)                     -0.6597         1.000000 C 
    115. C_2(C   3)                      3.0613         1.000000 C 
    116. C_1(C   3)                      1.2665         1.000000 C 
    117. C_2(C   4)                      3.1586         1.000000 C 
    118. C_1(C   4)                      0.4226         1.000000 C 
    119. C_0(C   4)                     -1.7471         1.000000 C 
    120. C_2(C   5)                      2.4346         1.000000 C 
    121. C_1(C   5)                      0.6924         1.000000 C 
    122. C_0(C   5)                     -2.9113         1.000000 C 
    -----------------------------------------------------------------

Number of atoms                         .... 18
Number of degrees of freedom            .... 122

         *************************************************************
         *                GEOMETRY OPTIMIZATION CYCLE   1            *
         *************************************************************
---------------------------------
CARTESIAN COORDINATES (ANGSTROEM)
---------------------------------
  C     -2.990957    1.813887    1.613458
  C     -1.907360    2.667010    1.510144
  C     -0.730234    2.403506    2.234471
  C     -0.659696    1.266548    3.061268
  C     -1.747098    0.422571    3.158609
  C     -2.911274    0.692362    2.434639
  H     -3.895607    2.017813    1.057077
  H     -3.757444    0.022273    2.514110
  H     -1.954891    3.540233    0.872198
  H      0.237030    1.038069    3.622086
  H     -1.696077   -0.450664    3.794681
  C      0.347170    3.333412    2.080250
  N      1.522959    3.296015    2.748562
  H      0.163780    4.245652    1.524520
  H      0.788886    3.177266    1.084133
  H      2.057217    4.155056    2.833712
  H      1.672737    2.625655    3.495355
  Cu     3.203756    2.537597    2.049472

----------------------------
CARTESIAN COORDINATES (A.U.)
----------------------------
  NO LB      ZA    FRAG     MASS         X           Y           Z
   0 C     6.0000    0    12.011   -5.652090    3.427750    3.048994
   1 C     6.0000    0    12.011   -3.604388    5.039918    2.853759
   2 C     6.0000    0    12.011   -1.379941    4.541969    4.222539
   3 C     6.0000    0    12.011   -1.246645    2.393430    5.784958
   4 C     6.0000    0    12.011   -3.301536    0.798544    5.968905
   5 C     6.0000    0    12.011   -5.501511    1.308375    4.600800
   6 H     1.0000    0     1.008   -7.361631    3.813113    1.997586
   7 H     1.0000    0     1.008   -7.100541    0.042089    4.750979
   8 H     1.0000    0     1.008   -3.694208    6.690071    1.648215
   9 H     1.0000    0     1.008    0.447921    1.961666    6.844750
  10 H     1.0000    0     1.008   -3.205120   -0.851631    7.170907
  11 C     6.0000    0    12.011    0.656057    6.299235    3.931103
  12 N     7.0000    0    14.007    2.877976    6.228566    5.194029
  13 H     1.0000    0     1.008    0.309499    8.023120    2.880926
  14 H     1.0000    0     1.008    1.490778    6.004162    2.048714
  15 H     1.0000    0     1.008    3.887577    7.851919    5.354940
  16 H     1.0000    0     1.008    3.161016    4.961769    6.605264
  17 Cu   29.0000    0    63.550    6.054222    4.795364    3.872940

--------------------------------
INTERNAL COORDINATES (ANGSTROEM)
--------------------------------
 C      0   0   0     0.000000000000     0.00000000     0.00000000
 C      1   0   0     1.382994874055     0.00000000     0.00000000
 C      2   1   0     1.407021888380   120.10019605     0.00000000
 C      3   2   1     1.407566004658   119.70836941     0.16528481
 C      4   3   2     1.379932958952   119.73369686   359.75560018
 C      1   2   3     1.392302286249   119.74331125   359.87068133
 H      1   2   3     1.081451137693   120.04426616   179.94010902
 H      6   1   2     1.082284483871   119.82116171   180.18412673
 H      2   1   3     1.082475679207   120.48029844   179.88492868
 H      4   3   2     1.082051649177   121.09980954   179.50870528
 H      5   4   3     1.081540406863   119.87590800   180.11661116
 C      3   2   1     1.431540139661   116.90649115   180.20269665
 N     12   3   2     1.352966309788   125.65408679   175.90153008
 H     12   3   2     1.083813009573   118.33601872     7.62986925
 H     12   3   2     1.100792384029   107.89944352   286.61594990
 H     13  12   3     1.015201455215   118.38438372   202.67660595
 H     13  12   3     1.014651070929   120.67087018   353.72369762
 Cu    13  12   3     1.972055778459   125.18479347    98.13415419

---------------------------
INTERNAL COORDINATES (A.U.)
---------------------------
 C      0   0   0     0.000000000000     0.00000000     0.00000000
 C      1   0   0     2.613481556581     0.00000000     0.00000000
 C      2   1   0     2.658886033471   120.10019605     0.00000000
 C      3   2   1     2.659914264222   119.70836941     0.16528481
 C      4   3   2     2.607695375590   119.73369686   359.75560018
 C      1   2   3     2.631070016642   119.74331125   359.87068133
 H      1   2   3     2.043646477458   120.04426616   179.94010902
 H      6   1   2     2.045221273508   119.82116171   180.18412673
 H      2   1   3     2.045582580332   120.48029844   179.88492868
 H      4   3   2     2.044781279703   121.09980954   179.50870528
 H      5   4   3     2.043815171741   119.87590800   180.11661116
 C      3   2   1     2.705218813675   116.90649115   180.20269665
 N     12   3   2     2.556735793922   125.65408679   175.90153008
 H     12   3   2     2.048109768474   118.33601872     7.62986925
 H     12   3   2     2.080196136121   107.89944352   286.61594990
 H     13  12   3     1.918452721114   118.38438372   202.67660595
 H     13  12   3     1.917412645546   120.67087018   353.72369762
 Cu    13  12   3     3.726645342104   125.18479347    98.13415419

---------------------
BASIS SET INFORMATION
---------------------
There are 4 groups of distinct atoms

 Group   1 Type C   : 11s6p2d1f contracted to 5s3p2d1f pattern {62111/411/11/1}
 Group   2 Type H   : 5s1p contracted to 3s1p pattern {311/1}
 Group   3 Type N   : 11s6p2d1f contracted to 5s3p2d1f pattern {62111/411/11/1}
 Group   4 Type Cu  : 17s11p7d1f contracted to 6s4p4d1f pattern {842111/6311/4111/1}

Atom   0C    basis set group =>   1
Atom   1C    basis set group =>   1
Atom   2C    basis set group =>   1
Atom   3C    basis set group =>   1
Atom   4C    basis set group =>   1
Atom   5C    basis set group =>   1
Atom   6H    basis set group =>   2
Atom   7H    basis set group =>   2
Atom   8H    basis set group =>   2
Atom   9H    basis set group =>   2
Atom  10H    basis set group =>   2
Atom  11C    basis set group =>   1
Atom  12N    basis set group =>   3
Atom  13H    basis set group =>   2
Atom  14H    basis set group =>   2
Atom  15H    basis set group =>   2
Atom  16H    basis set group =>   2
Atom  17Cu   basis set group =>   4
---------------------------------
AUXILIARY/J BASIS SET INFORMATION
---------------------------------
There are 4 groups of distinct atoms

 Group   1 Type C   : 12s5p4d2f1g contracted to 6s4p3d1f1g pattern {711111/2111/211/2/1}
 Group   2 Type H   : 5s2p1d contracted to 3s1p1d pattern {311/2/1}
 Group   3 Type N   : 12s5p4d2f1g contracted to 6s4p3d1f1g pattern {711111/2111/211/2/1}
 Group   4 Type Cu  : 19s5p5d3f3g contracted to 8s5p4d3f3g pattern {121111111/11111/2111/111/111}

Atom   0C    basis set group =>   1
Atom   1C    basis set group =>   1
Atom   2C    basis set group =>   1
Atom   3C    basis set group =>   1
Atom   4C    basis set group =>   1
Atom   5C    basis set group =>   1
Atom   6H    basis set group =>   2
Atom   7H    basis set group =>   2
Atom   8H    basis set group =>   2
Atom   9H    basis set group =>   2
Atom  10H    basis set group =>   2
Atom  11C    basis set group =>   1
Atom  12N    basis set group =>   3
Atom  13H    basis set group =>   2
Atom  14H    basis set group =>   2
Atom  15H    basis set group =>   2
Atom  16H    basis set group =>   2
Atom  17Cu   basis set group =>   4


           ************************************************************
           *        Program running with 32 parallel MPI-processes    *
           *              working on a common directory               *
           ************************************************************
------------------------------------------------------------------------------
                           ORCA GTO INTEGRAL CALCULATION
                           -- RI-GTO INTEGRALS CHOSEN --
------------------------------------------------------------------------------
------------------------------------------------------------------------------
                   ___                                                        
                  /   \      - P O W E R E D   B Y -                         
                 /     \                                                     
                 |  |  |   _    _      __       _____    __    __             
                 |  |  |  | |  | |    /  \     |  _  \  |  |  /  |          
                  \  \/   | |  | |   /    \    | | | |  |  | /  /          
                 / \  \   | |__| |  /  /\  \   | |_| |  |  |/  /          
                |  |  |   |  __  | /  /__\  \  |    /   |      \           
                |  |  |   | |  | | |   __   |  |    \   |  |\   \          
                \     /   | |  | | |  |  |  |  | |\  \  |  | \   \       
                 \___/    |_|  |_| |__|  |__|  |_| \__\ |__|  \__/        
                                                                              
                      - O R C A' S   B I G   F R I E N D -                    
                                      &                                       
                       - I N T E G R A L  F E E D E R -                       
                                                                              
 v1 FN, 2020, v2 2021                                                         
------------------------------------------------------------------------------


Reading SHARK input file orca.SHARKINP.tmp ... ok
----------------------
SHARK INTEGRAL PACKAGE
----------------------

Number of atoms                             ...     18
Number of basis functions                   ...    347
Number of shells                            ...    139
Maximum angular momentum                    ...      3
Integral batch strategy                     ... SHARK/LIBINT Hybrid
RI-J (if used) integral strategy            ... SPLIT-RIJ (Revised 2003 algorithm where possible)
Printlevel                                  ...      1
Contraction scheme used                     ... SEGMENTED contraction
Coulomb Range Separation                    ... NOT USED
Exchange Range Separation                   ... NOT USED
Finite Nucleus Model                        ... NOT USED
Auxiliary Coulomb fitting basis             ... AVAILABLE
   # of basis functions in Aux-J            ...    582
   # of shells in Aux-J                     ...    188
   Maximum angular momentum in Aux-J        ...      4
Auxiliary J/K fitting basis                 ... NOT available
Auxiliary Correlation fitting basis         ... NOT available
Auxiliary 'external' fitting basis          ... NOT available
Integral threshold                          ...     2.500000e-11
Primitive cut-off                           ...     2.500000e-12
Primitive pair pre-selection threshold      ...     2.500000e-12

Calculating pre-screening integrals         ... done (  0.2 sec) Dimension = 139
Organizing shell pair data                  ... done (  0.9 sec)
Shell pair information
Total number of shell pairs                 ...      9730
Shell pairs after pre-screening             ...      8484
Total number of primitive shell pairs       ...     31637
Primitive shell pairs kept                  ...     19794
          la=0 lb=0:   2291 shell pairs
          la=1 lb=0:   2366 shell pairs
          la=1 lb=1:    636 shell pairs
          la=2 lb=0:   1282 shell pairs
          la=2 lb=1:    671 shell pairs
          la=2 lb=2:    191 shell pairs
          la=3 lb=0:    559 shell pairs
          la=3 lb=1:    293 shell pairs
          la=3 lb=2:    157 shell pairs
          la=3 lb=3:     38 shell pairs

Calculating one electron integrals          ... done (  0.5 sec)
Calculating RI/J V-Matrix + Cholesky decomp.... done (  2.4 sec)
Calculating Nuclear repulsion               ... done (  0.0 sec) ENN=    577.170224108639 Eh

SHARK setup successfully completed in   6.3 seconds

Maximum memory used throughout the entire GTOINT-calculation: 25.4 MB


           ************************************************************
           *        Program running with 32 parallel MPI-processes    *
           *              working on a common directory               *
           ************************************************************
-------------------------------------------------------------------------------
                                 ORCA SCF
-------------------------------------------------------------------------------

------------
SCF SETTINGS
------------
Hamiltonian:
 Density Functional     Method          .... DFT(GTOs)
 Exchange Functional    Exchange        .... B88
   X-Alpha parameter    XAlpha          ....  0.666667
   Becke's b parameter  XBeta           ....  0.004200
 Correlation Functional Correlation     .... LYP
 LDA part of GGA corr.  LDAOpt          .... VWN-5
 Gradients option       PostSCFGGA      .... off
 Hybrid DFT is turned on
   Fraction HF Exchange ScalHFX         ....  0.200000
   Scaling of DF-GGA-X  ScalDFX         ....  0.720000
   Scaling of DF-GGA-C  ScalDFC         ....  0.810000
   Scaling of DF-LDA-C  ScalLDAC        ....  1.000000
   Perturbative correction              ....  0.000000
   Density functional embedding theory  .... OFF
   NL short-range parameter             ....  4.800000
 RI-approximation to the Coulomb term is turned on
   Number of AuxJ basis functions       .... 582
   RIJ-COSX (HFX calculated with COS-X)).... on


General Settings:
 Integral files         IntName         .... orca
 Hartree-Fock type      HFTyp           .... RHF
 Total Charge           Charge          ....    1
 Multiplicity           Mult            ....    1
 Number of Electrons    NEL             ....   86
 Basis Dimension        Dim             ....  347
 Nuclear Repulsion      ENuc            ....    577.1702241086 Eh

Convergence Acceleration:
 DIIS                   CNVDIIS         .... on
   Start iteration      DIISMaxIt       ....    12
   Startup error        DIISStart       ....  0.200000
   # of expansion vecs  DIISMaxEq       ....     5
   Bias factor          DIISBfac        ....   1.050
   Max. coefficient     DIISMaxC        ....  10.000
 Trust-Rad. Augm. Hess. CNVTRAH         .... auto
   Auto Start mean grad. ratio tolernc. ....  1.125000
   Auto Start start iteration           ....    20
   Auto Start num. interpolation iter.  ....    10
   Max. Number of Micro iterations      ....    16
   Max. Number of Macro iterations      .... Maxiter - #DIIS iter
   Number of Davidson start vectors     ....     2
   Converg. threshold I  (grad. norm)   ....   1.000e-05
   Converg. threshold II (energy diff.) ....   1.000e-08
   Grad. Scal. Fac. for Micro threshold ....   0.100
   Minimum threshold for Micro iter.    ....   0.010
   NR start threshold (gradient norm)   ....   0.001
   Initial trust radius                 ....   0.400
   Minimum AH scaling param. (alpha)    ....   1.000
   Maximum AH scaling param. (alpha)    .... 1000.000
   Orbital update algorithm             .... Taylor
   White noise on init. David. guess    .... on
   Maximum white noise                  ....   0.010
   Quad. conv. algorithm                .... NR
 SOSCF                  CNVSOSCF        .... off
 Level Shifting         CNVShift        .... on
   Level shift para.    LevelShift      ....    0.2500
   Turn off err/grad.   ShiftErr        ....    0.0010
 Zerner damping         CNVZerner       .... off
 Static damping         CNVDamp         .... on
   Fraction old density DampFac         ....    0.7000
   Max. Damping (<1)    DampMax         ....    0.9800
   Min. Damping (>=0)   DampMin         ....    0.0000
   Turn off err/grad.   DampErr         ....    0.1000
 Fernandez-Rico         CNVRico         .... off

SCF Procedure:
 Maximum # iterations   MaxIter         ....  2000
 SCF integral mode      SCFMode         .... Direct
   Integral package                     .... SHARK and LIBINT hybrid scheme
 Reset frequency        DirectResetFreq ....    15
 Integral Threshold     Thresh          ....  2.500e-11 Eh
 Primitive CutOff       TCut            ....  2.500e-12 Eh

Convergence Tolerance:
 Convergence Check Mode ConvCheckMode   .... Total+1el-Energy
 Convergence forced     ConvForced      .... 0
 Energy Change          TolE            ....  1.000e-08 Eh
 1-El. energy change                    ....  1.000e-05 Eh
 DIIS Error             TolErr          ....  5.000e-07


Diagonalization of the overlap matrix:
Smallest eigenvalue                        ... 8.763e-06
Time for diagonalization                   ...    0.078 sec
Threshold for overlap eigenvalues          ... 1.000e-08
Number of eigenvalues below threshold      ... 0
Time for construction of square roots      ...    0.586 sec
Total time needed                          ...    1.119 sec

Time for model grid setup =    1.856 sec

------------------------------
INITIAL GUESS: MODEL POTENTIAL
------------------------------
Loading Hartree-Fock densities                     ... done
Calculating cut-offs                               ... done
Initializing the effective Hamiltonian             ... done
Setting up the integral package (SHARK)            ... done
Starting the Coulomb interaction                   ... done (   3.0 sec)
Reading the grid                                   ... done
Mapping shells                                     ... done
Starting the XC term evaluation                    ... done (   0.2 sec)
  promolecular density results
     # of electrons  =     86.990160300
     EX              =   -111.132613985
     EC              =     -3.309182213
     EX+EC           =   -114.441796198
Transforming the Hamiltonian                       ... done (   1.7 sec)
Diagonalizing the Hamiltonian                      ... done (   1.6 sec)
Back transforming the eigenvectors                 ... done (   0.2 sec)
Now organizing SCF variables                       ... done
                      ------------------
                      INITIAL GUESS DONE (   9.6 sec)
                      ------------------
-------------------
DFT GRID GENERATION
-------------------

General Integration Accuracy     IntAcc      ... 4.388
Radial Grid Type                 RadialGrid  ... OptM3 with GC (2021)
Angular Grid (max. ang.)         AngularGrid ... 4 (Lebedev-302)
Angular grid pruning method      GridPruning ... 4 (adaptive)
Weight generation scheme         WeightScheme... Becke
Basis function cutoff            BFCut       ... 1.0000e-11
Integration weight cutoff        WCut        ... 1.0000e-14
Angular grids for H and He will be reduced by one unit
Partially contracted basis set               ... off
Rotationally invariant grid construction     ... off

Total number of grid points                  ...    88089
Total number of batches                      ...     1386
Average number of points per batch           ...       63
Average number of grid points per atom       ...     4894
Time for grid setup =    4.121 sec

--------------------
COSX GRID GENERATION
--------------------

GRIDX 1
-------
General Integration Accuracy     IntAcc      ... 3.816
Radial Grid Type                 RadialGrid  ... OptM3 with GC (2021)
Angular Grid (max. ang.)         AngularGrid ... 1 (Lebedev-50)
Angular grid pruning method      GridPruning ... 4 (adaptive)
Weight generation scheme         WeightScheme... Becke
Basis function cutoff            BFCut       ... 1.0000e-11
Integration weight cutoff        WCut        ... 1.0000e-14
Angular grids for H and He will be reduced by one unit
Partially contracted basis set               ... on
Rotationally invariant grid construction     ... off

Total number of grid points                  ...    11032
Total number of batches                      ...      179
Average number of points per batch           ...       61
Average number of grid points per atom       ...      613
UseSFitting                                  ... on

GRIDX 2
-------
General Integration Accuracy     IntAcc      ... 4.020
Radial Grid Type                 RadialGrid  ... OptM3 with GC (2021)
Angular Grid (max. ang.)         AngularGrid ... 2 (Lebedev-110)
Angular grid pruning method      GridPruning ... 4 (adaptive)
Weight generation scheme         WeightScheme... Becke
Basis function cutoff            BFCut       ... 1.0000e-11
Integration weight cutoff        WCut        ... 1.0000e-14
Angular grids for H and He will be reduced by one unit
Partially contracted basis set               ... on
Rotationally invariant grid construction     ... off

Total number of grid points                  ...    23768
Total number of batches                      ...      381
Average number of points per batch           ...       62
Average number of grid points per atom       ...     1320
UseSFitting                                  ... on

GRIDX 3
-------
General Integration Accuracy     IntAcc      ... 4.338
Radial Grid Type                 RadialGrid  ... OptM3 with GC (2021)
Angular Grid (max. ang.)         AngularGrid ... 3 (Lebedev-194)
Angular grid pruning method      GridPruning ... 4 (adaptive)
Weight generation scheme         WeightScheme... Becke
Basis function cutoff            BFCut       ... 1.0000e-11
Integration weight cutoff        WCut        ... 1.0000e-14
Angular grids for H and He will be reduced by one unit
Partially contracted basis set               ... on
Rotationally invariant grid construction     ... off

Total number of grid points                  ...    52309
Total number of batches                      ...      826
Average number of points per batch           ...       63
Average number of grid points per atom       ...     2906
UseSFitting                                  ... on

Time for X-Grid setup             =    8.613 sec


--------------------
CPCM SOLVATION MODEL
--------------------
CPCM parameters:
  Epsilon                                         ...       6.0200
  Refrac                                          ...       1.3723
  Rsolv                                           ...       1.3000
  Surface type                                    ... GAUSSIAN VDW
  Epsilon function type                           ...         CPCM
Radii:
 Radius for C  used is    3.8550 Bohr (=   2.0400 Ang.)
 Radius for H  used is    2.4944 Bohr (=   1.3200 Ang.)
 Radius for N  used is    3.5149 Bohr (=   1.8600 Ang.)
 Radius for Cu used is    3.1747 Bohr (=   1.6800 Ang.)
Calculating surface                               ...        done! (  0.0s)
GEPOL surface points                              ...         1024
GEPOL Volume                                      ...    1062.0133
GEPOL Surface-area                                ...     610.1042
Calculating surface distance matrix               ...        done! (  0.0s)
Performing Cholesky decomposition & store         ...        done! (  6.4s)
Overall time for CPCM initialization              ...                 6.4s
--------------
SCF ITERATIONS
--------------
ITER       Energy         Delta-E        Max-DP      RMS-DP      [F,P]     Damp
               ***  Starting incremental Fock matrix formation  ***
  0  -1966.8186072922   0.000000000000 0.04128841  0.00093605  0.2376358 0.7000
  1  -1966.9352986487  -0.116691356498 0.03398787  0.00066909  0.1052216 0.7000
                               ***Turning on DIIS***
  2  -1966.9825508966  -0.047252247888 0.04927149  0.00115273  0.0308971 0.0000
  3  -1967.0529830899  -0.070432193331 0.03700245  0.00048839  0.0607807 0.0000
  4  -1967.0714269259  -0.018443836000 0.00800808  0.00016407  0.0084219 0.0000
  5  -1967.0723610013  -0.000934075392 0.00610856  0.00006976  0.0052368 0.0000
  6  -1967.0724427315  -0.000081730219 0.00228347  0.00003710  0.0017634 0.0000
  7  -1967.0724532019  -0.000010470384 0.00101657  0.00001789  0.0019803 0.0000
  8  -1967.0724594512  -0.000006249288 0.00170403  0.00001710  0.0006468 0.0000
               *** Restarting incremental Fock matrix formation ***
                                   *** Resetting DIIS ***
  9  -1967.0724574668   0.000001984330 0.00042337  0.00001023  0.0001209 0.0000
 10  -1967.0724575645  -0.000000097663 0.00016673  0.00000164  0.0001233 0.0000
 11  -1967.0724576915  -0.000000127032 0.00002865  0.00000075  0.0000590 0.0000
 12  -1967.0724576883   0.000000003267 0.00004409  0.00000088  0.0000806 0.0000
 13  -1967.0724577056  -0.000000017332 0.00002624  0.00000060  0.0000390 0.0000
 14  -1967.0724577016   0.000000003972 0.00003742  0.00000101  0.0000147 0.0000
 15  -1967.0724576975   0.000000004121 0.00002427  0.00000068  0.0000034 0.0000
                 **** Energy Check signals convergence ****

               *****************************************************
               *                     SUCCESS                       *
               *           SCF CONVERGED AFTER  16 CYCLES          *
               *****************************************************

Old exchange energy                            =    -22.329931658 Eh
New exchange energy                            =    -22.329922159 Eh
Exchange energy change after final integration =      0.000009499 Eh
Total energy after final integration           =  -1967.072448202 Eh
Final COS-X integration done in                =     3.047 sec

----------------
TOTAL SCF ENERGY
----------------

Total Energy       :        -1967.07244820 Eh          -53526.76256 eV

Components:
Nuclear Repulsion  :          577.17022411 Eh           15705.60026 eV
Electronic Energy  :        -2544.24267231 Eh          -69232.36282 eV
One Electron Energy:        -3859.15558241 Eh         -105012.96215 eV
Two Electron Energy:         1314.91291010 Eh           35780.59933 eV
Max COSX asymmetry :            0.00000100 Eh               0.00003 eV
CPCM Dielectric    :           -0.11187058 Eh              -3.04415 eV

Virial components:
Potential Energy   :        -3930.59717961 Eh         -106956.98685 eV
Kinetic Energy     :         1963.52473141 Eh           53430.22428 eV
Virial Ratio       :            2.00180681


DFT components:
N(Alpha)           :       42.999984581067 electrons
N(Beta)            :       42.999984581067 electrons
N(Total)           :       85.999969162135 electrons
E(X)               :      -88.970334939348 Eh       
E(C)               :       -3.861929716835 Eh       
E(XC)              :      -92.832264656183 Eh       
DFET-embed. en.    :        0.000000000000 Eh       
CPCM Solvation Model Properties:
Surface-charge          :           -1.03144975
Charge-correction       :            0.00409888 Eh               0.11154 eV
Free-energy (cav+disp)  :  This term is not implemented in the current solvation scheme

---------------
SCF CONVERGENCE
---------------

  Last Energy change         ...   -3.3963e-09  Tolerance :   1.0000e-08
  Last MAX-Density change    ...    0.0000e+00  Tolerance :   1.0000e-07
  Last RMS-Density change    ...    0.0000e+00  Tolerance :   5.0000e-09
  Last DIIS Error            ...    1.4887e-06  Tolerance :   5.0000e-07

             **** THE GBW FILE WAS UPDATED (orca.gbw) ****
             **** DENSITY orca.scfp WAS UPDATED ****
             **** ENERGY FILE WAS UPDATED (orca.en.tmp) ****
             **** THE GBW FILE WAS UPDATED (orca.gbw) ****
             **** DENSITY orca.scfp WAS UPDATED ****
----------------
ORBITAL ENERGIES
----------------

  NO   OCC          E(Eh)            E(eV) 
   0   2.0000    -323.039192     -8790.3433 
   1   2.0000     -38.828361     -1056.5734 
   2   2.0000     -34.033256      -926.0920 
   3   2.0000     -34.033101      -926.0877 
   4   2.0000     -34.033038      -926.0861 
   5   2.0000     -14.389290      -391.5525 
   6   2.0000     -10.226965      -278.2899 
   7   2.0000     -10.211608      -277.8720 
   8   2.0000     -10.193358      -277.3754 
   9   2.0000     -10.190378      -277.2943 
  10   2.0000     -10.190360      -277.2938 
  11   2.0000     -10.189314      -277.2653 
  12   2.0000     -10.185497      -277.1615 
  13   2.0000      -4.322015      -117.6080 
  14   2.0000      -2.818966       -76.7080 
  15   2.0000      -2.815497       -76.6136 
  16   2.0000      -2.815216       -76.6059 
  17   2.0000      -0.990877       -26.9631 
  18   2.0000      -0.878916       -23.9165 
  19   2.0000      -0.797362       -21.6973 
  20   2.0000      -0.768721       -20.9180 
  21   2.0000      -0.720466       -19.6049 
  22   2.0000      -0.634988       -17.2789 
  23   2.0000      -0.624028       -16.9807 
  24   2.0000      -0.585410       -15.9298 
  25   2.0000      -0.552655       -15.0385 
  26   2.0000      -0.519913       -14.1476 
  27   2.0000      -0.490021       -13.3341 
  28   2.0000      -0.474508       -12.9120 
  29   2.0000      -0.457787       -12.4570 
  30   2.0000      -0.442967       -12.0537 
  31   2.0000      -0.432367       -11.7653 
  32   2.0000      -0.391373       -10.6498 
  33   2.0000      -0.371533       -10.1099 
  34   2.0000      -0.363388        -9.8883 
  35   2.0000      -0.332854        -9.0574 
  36   2.0000      -0.310588        -8.4515 
  37   2.0000      -0.309092        -8.4108 
  38   2.0000      -0.308928        -8.4064 
  39   2.0000      -0.308887        -8.4052 
  40   2.0000      -0.282130        -7.6772 
  41   2.0000      -0.278638        -7.5821 
  42   2.0000      -0.240148        -6.5348 
  43   0.0000      -0.108305        -2.9471 
  44   0.0000      -0.035781        -0.9737 
  45   0.0000      -0.029466        -0.8018 
  46   0.0000       0.008189         0.2228 
  47   0.0000       0.015627         0.4252 
  48   0.0000       0.028728         0.7817 
  49   0.0000       0.048948         1.3319 
  50   0.0000       0.064659         1.7595 
  51   0.0000       0.074475         2.0266 
  52   0.0000       0.085750         2.3334 
  53   0.0000       0.094164         2.5623 
  54   0.0000       0.096659         2.6302 
  55   0.0000       0.105739         2.8773 
  56   0.0000       0.112554         3.0628 
  57   0.0000       0.125522         3.4156 
  58   0.0000       0.132103         3.5947 
  59   0.0000       0.142323         3.8728 
  60   0.0000       0.149668         4.0727 
  61   0.0000       0.166388         4.5276 
  62   0.0000       0.174025         4.7355 
  63   0.0000       0.183722         4.9993 
  64   0.0000       0.188280         5.1234 
  65   0.0000       0.201873         5.4932 
  66   0.0000       0.207487         5.6460 
  67   0.0000       0.212896         5.7932 
  68   0.0000       0.217957         5.9309 
  69   0.0000       0.225769         6.1435 
  70   0.0000       0.226837         6.1725 
  71   0.0000       0.240416         6.5420 
  72   0.0000       0.251644         6.8476 
  73   0.0000       0.256602         6.9825 
  74   0.0000       0.260681         7.0935 
  75   0.0000       0.275114         7.4862 
  76   0.0000       0.296717         8.0741 
  77   0.0000       0.310301         8.4437 
  78   0.0000       0.314031         8.5452 
  79   0.0000       0.325886         8.8678 
  80   0.0000       0.328031         8.9262 
  81   0.0000       0.339394         9.2354 
  82   0.0000       0.350526         9.5383 
  83   0.0000       0.354871         9.6565 
  84   0.0000       0.357387         9.7250 
  85   0.0000       0.383477        10.4349 
  86   0.0000       0.386653        10.5214 
  87   0.0000       0.392398        10.6777 
  88   0.0000       0.407187        11.0801 
  89   0.0000       0.411831        11.2065 
  90   0.0000       0.419389        11.4122 
  91   0.0000       0.429495        11.6872 
  92   0.0000       0.438841        11.9415 
  93   0.0000       0.458479        12.4758 
  94   0.0000       0.461498        12.5580 
  95   0.0000       0.471693        12.8354 
  96   0.0000       0.482882        13.1399 
  97   0.0000       0.489270        13.3137 
  98   0.0000       0.495588        13.4856 
  99   0.0000       0.513236        13.9659 
 100   0.0000       0.525025        14.2867 
 101   0.0000       0.544169        14.8076 
 102   0.0000       0.553260        15.0550 
 103   0.0000       0.571248        15.5445 
 104   0.0000       0.622474        16.9384 
 105   0.0000       0.630550        17.1581 
 106   0.0000       0.644979        17.5508 
 107   0.0000       0.652523        17.7560 
 108   0.0000       0.658308        17.9135 
 109   0.0000       0.664516        18.0824 
 110   0.0000       0.681745        18.5512 
 111   0.0000       0.698416        19.0049 
 112   0.0000       0.715127        19.4596 
 113   0.0000       0.727471        19.7955 
 114   0.0000       0.736267        20.0348 
 115   0.0000       0.744333        20.2543 
 116   0.0000       0.779809        21.2197 
 117   0.0000       0.800682        21.7877 
 118   0.0000       0.801047        21.7976 
 119   0.0000       0.818588        22.2749 
 120   0.0000       0.835765        22.7423 
 121   0.0000       0.856317        23.3016 
 122   0.0000       0.861793        23.4506 
 123   0.0000       0.869237        23.6531 
 124   0.0000       0.879507        23.9326 
 125   0.0000       0.900312        24.4987 
 126   0.0000       0.908897        24.7323 
 127   0.0000       0.933719        25.4078 
 128   0.0000       0.936677        25.4883 
 129   0.0000       0.966774        26.3073 
 130   0.0000       0.988335        26.8940 
 131   0.0000       1.001623        27.2556 
 132   0.0000       1.032521        28.0963 
 133   0.0000       1.044166        28.4132 
 134   0.0000       1.055098        28.7107 
 135   0.0000       1.083738        29.4900 
 136   0.0000       1.097741        29.8710 
 137   0.0000       1.146711        31.2036 
 138   0.0000       1.166457        31.7409 
 139   0.0000       1.177513        32.0418 
 140   0.0000       1.190380        32.3919 
 141   0.0000       1.200351        32.6632 
 142   0.0000       1.203347        32.7447 
 143   0.0000       1.218710        33.1628 
 144   0.0000       1.238143        33.6916 
 145   0.0000       1.240184        33.7471 
 146   0.0000       1.260361        34.2962 
 147   0.0000       1.285713        34.9860 
 148   0.0000       1.313318        35.7372 
 149   0.0000       1.328765        36.1575 
 150   0.0000       1.345580        36.6151 
 151   0.0000       1.375651        37.4334 
 152   0.0000       1.403579        38.1933 
 153   0.0000       1.432496        38.9802 
 154   0.0000       1.443542        39.2808 
 155   0.0000       1.457723        39.6667 
 156   0.0000       1.463128        39.8137 
 157   0.0000       1.481137        40.3038 
 158   0.0000       1.497712        40.7548 
 159   0.0000       1.508569        41.0503 
 160   0.0000       1.521990        41.4154 
 161   0.0000       1.547195        42.1013 
 162   0.0000       1.567119        42.6435 
 163   0.0000       1.574696        42.8497 
 164   0.0000       1.606366        43.7114 
 165   0.0000       1.612527        43.8791 
 166   0.0000       1.642304        44.6894 
 167   0.0000       1.654751        45.0281 
 168   0.0000       1.656842        45.0850 
 169   0.0000       1.670470        45.4558 
 170   0.0000       1.680909        45.7398 
 171   0.0000       1.687794        45.9272 
 172   0.0000       1.715713        46.6869 
 173   0.0000       1.741382        47.3854 
 174   0.0000       1.769812        48.1590 
 175   0.0000       1.804480        49.1024 
 176   0.0000       1.822654        49.5969 
 177   0.0000       1.846354        50.2419 
 178   0.0000       1.874062        50.9958 
 179   0.0000       1.882200        51.2173 
 180   0.0000       1.892885        51.5080 
 181   0.0000       1.935165        52.6585 
 182   0.0000       1.955874        53.2220 
 183   0.0000       1.962356        53.3984 
 184   0.0000       1.983591        53.9763 
 185   0.0000       2.020007        54.9672 
 186   0.0000       2.043514        55.6068 
 187   0.0000       2.065883        56.2155 
 188   0.0000       2.084404        56.7195 
 189   0.0000       2.114207        57.5305 
 190   0.0000       2.126991        57.8784 
 191   0.0000       2.140251        58.2392 
 192   0.0000       2.156005        58.6679 
 193   0.0000       2.177590        59.2552 
 194   0.0000       2.196964        59.7824 
 195   0.0000       2.208264        60.0899 
 196   0.0000       2.233896        60.7874 
 197   0.0000       2.241972        61.0072 
 198   0.0000       2.256777        61.4100 
 199   0.0000       2.344573        63.7991 
 200   0.0000       2.367379        64.4197 
 201   0.0000       2.384230        64.8782 
 202   0.0000       2.404614        65.4329 
 203   0.0000       2.433685        66.2239 
 204   0.0000       2.462192        66.9996 
 205   0.0000       2.474420        67.3324 
 206   0.0000       2.508108        68.2491 
 207   0.0000       2.531139        68.8758 
 208   0.0000       2.537857        69.0586 
 209   0.0000       2.556538        69.5669 
 210   0.0000       2.573953        70.0408 
 211   0.0000       2.585514        70.3554 
 212   0.0000       2.607943        70.9657 
 213   0.0000       2.613053        71.1048 
 214   0.0000       2.619549        71.2815 
 215   0.0000       2.628220        71.5175 
 216   0.0000       2.655638        72.2636 
 217   0.0000       2.668796        72.6216 
 218   0.0000       2.677007        72.8451 
 219   0.0000       2.691173        73.2305 
 220   0.0000       2.695371        73.3448 
 221   0.0000       2.733334        74.3778 
 222   0.0000       2.737063        74.4793 
 223   0.0000       2.756147        74.9986 
 224   0.0000       2.757335        75.0309 
 225   0.0000       2.770066        75.3773 
 226   0.0000       2.803747        76.2938 
 227   0.0000       2.820097        76.7387 
 228   0.0000       2.832895        77.0870 
 229   0.0000       2.833714        77.1093 
 230   0.0000       2.863532        77.9207 
 231   0.0000       2.882738        78.4433 
 232   0.0000       2.904876        79.0457 
 233   0.0000       2.952074        80.3300 
 234   0.0000       2.958712        80.5106 
 235   0.0000       2.972020        80.8728 
 236   0.0000       2.993491        81.4570 
 237   0.0000       3.004022        81.7436 
 238   0.0000       3.017223        82.1028 
 239   0.0000       3.063598        83.3647 
 240   0.0000       3.076692        83.7211 
 241   0.0000       3.104868        84.4878 
 242   0.0000       3.114603        84.7526 
 243   0.0000       3.123470        84.9939 
 244   0.0000       3.132054        85.2275 
 245   0.0000       3.145788        85.6012 
 246   0.0000       3.160995        86.0150 
 247   0.0000       3.162388        86.0530 
 248   0.0000       3.171217        86.2932 
 249   0.0000       3.204981        87.2120 
 250   0.0000       3.216852        87.5350 
 251   0.0000       3.231357        87.9297 
 252   0.0000       3.242637        88.2366 
 253   0.0000       3.257048        88.6288 
 254   0.0000       3.286798        89.4383 
 255   0.0000       3.302988        89.8789 
 256   0.0000       3.316176        90.2377 
 257   0.0000       3.323462        90.4360 
 258   0.0000       3.338312        90.8401 
 259   0.0000       3.354328        91.2759 
 260   0.0000       3.377209        91.8985 
 261   0.0000       3.381458        92.0141 
 262   0.0000       3.399311        92.5000 
 263   0.0000       3.440843        93.6301 
 264   0.0000       3.448766        93.8457 
 265   0.0000       3.466943        94.3403 
 266   0.0000       3.483426        94.7888 
 267   0.0000       3.497979        95.1848 
 268   0.0000       3.512441        95.5784 
 269   0.0000       3.528072        96.0037 
 270   0.0000       3.578913        97.3872 
 271   0.0000       3.599848        97.9568 
 272   0.0000       3.603788        98.0641 
 273   0.0000       3.633984        98.8857 
 274   0.0000       3.651295        99.3568 
 275   0.0000       3.658195        99.5445 
 276   0.0000       3.669707        99.8578 
 277   0.0000       3.697505       100.6142 
 278   0.0000       3.706088       100.8478 
 279   0.0000       3.733053       101.5815 
 280   0.0000       3.744681       101.8979 
 281   0.0000       3.782513       102.9274 
 282   0.0000       3.814062       103.7859 
 283   0.0000       3.824143       104.0602 
 284   0.0000       3.861391       105.0738 
 285   0.0000       3.897627       106.0598 
 286   0.0000       3.927918       106.8841 
 287   0.0000       3.962666       107.8296 
 288   0.0000       3.976874       108.2162 
 289   0.0000       4.014046       109.2277 
 290   0.0000       4.020188       109.3949 
 291   0.0000       4.063391       110.5705 
 292   0.0000       4.124667       112.2379 
 293   0.0000       4.164848       113.3313 
 294   0.0000       4.178939       113.7147 
 295   0.0000       4.193666       114.1155 
 296   0.0000       4.203732       114.3894 
 297   0.0000       4.207186       114.4834 
 298   0.0000       4.228741       115.0699 
 299   0.0000       4.234798       115.2347 
 300   0.0000       4.293044       116.8197 
 301   0.0000       4.301731       117.0561 
 302   0.0000       4.314502       117.4036 
 303   0.0000       4.435925       120.7077 
 304   0.0000       4.461009       121.3902 
 305   0.0000       4.511523       122.7648 
 306   0.0000       4.546438       123.7149 
 307   0.0000       4.590824       124.9227 
 308   0.0000       4.638531       126.2209 
 309   0.0000       4.650221       126.5390 
 310   0.0000       4.679147       127.3261 
 311   0.0000       4.711796       128.2145 
 312   0.0000       4.728240       128.6620 
 313   0.0000       4.834310       131.5483 
 314   0.0000       4.856048       132.1398 
 315   0.0000       4.889701       133.0555 
 316   0.0000       4.898989       133.3083 
 317   0.0000       4.965763       135.1253 
 318   0.0000       5.048023       137.3637 
 319   0.0000       5.072664       138.0342 
 320   0.0000       5.161798       140.4597 
 321   0.0000       5.186047       141.1195 
 322   0.0000       5.208122       141.7202 
 323   0.0000       5.258406       143.0885 
 324   0.0000       5.287584       143.8825 
 325   0.0000       5.359478       145.8388 
 326   0.0000       5.379942       146.3957 
 327   0.0000       5.409778       147.2075 
 328   0.0000       5.451514       148.3432 
 329   0.0000       5.569778       151.5614 
 330   0.0000       5.705817       155.2632 
 331   0.0000       5.746295       156.3646 
 332   0.0000       5.746904       156.3812 
 333   0.0000       5.747349       156.3933 
 334   0.0000       5.750334       156.4745 
 335   0.0000       5.780380       157.2921 
 336   0.0000       5.807820       158.0388 
 337   0.0000       5.896757       160.4589 
 338   0.0000       5.962223       162.2403 
 339   0.0000      22.060287       600.2909 
 340   0.0000      22.557259       613.8142 
 341   0.0000      22.578091       614.3811 
 342   0.0000      22.694566       617.5505 
 343   0.0000      22.792250       620.2087 
 344   0.0000      22.848171       621.7303 
 345   0.0000      23.219833       631.8438 
 346   0.0000      32.041861       871.9034 

                    ********************************
                    * MULLIKEN POPULATION ANALYSIS *
                    ********************************

-----------------------
MULLIKEN ATOMIC CHARGES
-----------------------
   0 C :   -0.120615
   1 C :   -0.220743
   2 C :    0.167498
   3 C :   -0.246233
   4 C :   -0.130752
   5 C :   -0.157366
   6 H :    0.140794
   7 H :    0.138782
   8 H :    0.132498
   9 H :    0.119062
  10 H :    0.140106
  11 C :   -0.011928
  12 N :   -0.464230
  13 H :    0.181364
  14 H :    0.116092
  15 H :    0.298453
  16 H :    0.299947
  17 Cu:    0.617272
Sum of atomic charges:    1.0000000

--------------------------------
MULLIKEN REDUCED ORBITAL CHARGES
--------------------------------
  0 C s       :     3.212324  s :     3.212324
      pz      :     0.949120  p :     2.819182
      px      :     0.953264
      py      :     0.916797
      dz2     :     0.011423  d :     0.081791
      dxz     :     0.017049
      dyz     :     0.013477
      dx2y2   :     0.023391
      dxy     :     0.016451
      f0      :     0.000880  f :     0.007319
      f+1     :     0.000309
      f-1     :     0.001315
      f+2     :     0.000802
      f-2     :     0.001622
      f+3     :     0.001570
      f-3     :     0.000821
  1 C s       :     3.270126  s :     3.270126
      pz      :     0.979235  p :     2.865535
      px      :     0.897200
      py      :     0.989101
      dz2     :     0.007961  d :     0.077710
      dxz     :     0.017387
      dyz     :     0.013386
      dx2y2   :     0.022972
      dxy     :     0.016004
      f0      :     0.000716  f :     0.007372
      f+1     :     0.001203
      f-1     :     0.000506
      f+2     :     0.000959
      f-2     :     0.001448
      f+3     :     0.001395
      f-3     :     0.001146
  2 C s       :     3.154525  s :     3.154525
      pz      :     0.900376  p :     2.549847
      px      :     0.814739
      py      :     0.834733
      dz2     :     0.021569  d :     0.117788
      dxz     :     0.026910
      dyz     :     0.016075
      dx2y2   :     0.030058
      dxy     :     0.023176
      f0      :     0.000805  f :     0.010342
      f+1     :     0.001494
      f-1     :     0.001431
      f+2     :     0.001031
      f-2     :     0.001958
      f+3     :     0.001953
      f-3     :     0.001670
  3 C s       :     3.272456  s :     3.272456
      pz      :     0.998587  p :     2.889950
      px      :     0.989386
      py      :     0.901977
      dz2     :     0.010136  d :     0.076546
      dxz     :     0.015863
      dyz     :     0.013408
      dx2y2   :     0.024196
      dxy     :     0.012942
      f0      :     0.000841  f :     0.007281
      f+1     :     0.000305
      f-1     :     0.001272
      f+2     :     0.000852
      f-2     :     0.001619
      f+3     :     0.001555
      f-3     :     0.000838
  4 C s       :     3.210278  s :     3.210278
      pz      :     0.953930  p :     2.830303
      px      :     0.915651
      py      :     0.960722
      dz2     :     0.009115  d :     0.082753
      dxz     :     0.018934
      dyz     :     0.013148
      dx2y2   :     0.024766
      dxy     :     0.016790
      f0      :     0.000752  f :     0.007418
      f+1     :     0.001214
      f-1     :     0.000522
      f+2     :     0.000919
      f-2     :     0.001486
      f+3     :     0.001447
      f-3     :     0.001078
  5 C s       :     3.223983  s :     3.223983
      pz      :     0.943148  p :     2.846761
      px      :     0.954954
      py      :     0.948659
      dz2     :     0.018780  d :     0.079423
      dxz     :     0.012997
      dyz     :     0.011307
      dx2y2   :     0.013346
      dxy     :     0.022993
      f0      :     0.000393  f :     0.007199
      f+1     :     0.001210
      f-1     :     0.001309
      f+2     :     0.000881
      f-2     :     0.001342
      f+3     :     0.000939
      f-3     :     0.001125
  6 H s       :     0.836973  s :     0.836973
      pz      :     0.006963  p :     0.022233
      px      :     0.011044
      py      :     0.004226
  7 H s       :     0.838863  s :     0.838863
      pz      :     0.004402  p :     0.022355
      px      :     0.010052
      py      :     0.007901
  8 H s       :     0.845100  s :     0.845100
      pz      :     0.007958  p :     0.022403
      px      :     0.003822
      py      :     0.010622
  9 H s       :     0.858156  s :     0.858156
      pz      :     0.007404  p :     0.022782
      px      :     0.010687
      py      :     0.004691
 10 H s       :     0.837627  s :     0.837627
      pz      :     0.007828  p :     0.022267
      px      :     0.003719
      py      :     0.010719
 11 C s       :     3.035286  s :     3.035286
      pz      :     0.925166  p :     2.828597
      px      :     0.815962
      py      :     1.087470
      dz2     :     0.037003  d :     0.137000
      dxz     :     0.026674
      dyz     :     0.020790
      dx2y2   :     0.032442
      dxy     :     0.020091
      f0      :     0.000926  f :     0.011045
      f+1     :     0.003030
      f-1     :     0.000126
      f+2     :     0.001556
      f-2     :     0.001611
      f+3     :     0.001795
      f-3     :     0.002002
 12 N s       :     3.500822  s :     3.500822
      pz      :     1.427799  p :     3.901415
      px      :     1.198158
      py      :     1.275459
      dz2     :     0.014147  d :     0.058316
      dxz     :     0.010333
      dyz     :     0.007640
      dx2y2   :     0.008144
      dxy     :     0.018051
      f0      :     0.000301  f :     0.003678
      f+1     :     0.000768
      f-1     :     0.000538
      f+2     :     0.000659
      f-2     :     0.000448
      f+3     :     0.000567
      f-3     :     0.000397
 13 H s       :     0.790522  s :     0.790522
      pz      :     0.009425  p :     0.028114
      px      :     0.005116
      py      :     0.013572
 14 H s       :     0.856368  s :     0.856368
      pz      :     0.011897  p :     0.027540
      px      :     0.007240
      py      :     0.008403
 15 H s       :     0.664645  s :     0.664645
      pz      :     0.009014  p :     0.036901
      px      :     0.012324
      py      :     0.015563
 16 H s       :     0.662014  s :     0.662014
      pz      :     0.016169  p :     0.038039
      px      :     0.008058
      py      :     0.013813
 17 Cus       :     6.369582  s :     6.369582
      pz      :     4.016397  p :    12.106750
      px      :     4.070174
      py      :     4.020179
      dz2     :     1.986562  d :     9.906320
      dxz     :     1.979069
      dyz     :     1.993503
      dx2y2   :     1.974252
      dxy     :     1.972935
      f0      :     0.000009  f :     0.000076
      f+1     :     0.000011
      f-1     :     0.000002
      f+2     :     0.000013
      f-2     :     0.000011
      f+3     :     0.000012
      f-3     :     0.000019


                     *******************************
                     * LOEWDIN POPULATION ANALYSIS *
                     *******************************

----------------------
LOEWDIN ATOMIC CHARGES
----------------------
   0 C :   -0.139514
   1 C :   -0.104316
   2 C :   -0.151486
   3 C :   -0.123015
   4 C :   -0.140970
   5 C :   -0.145670
   6 H :    0.150548
   7 H :    0.147907
   8 H :    0.153020
   9 H :    0.147752
  10 H :    0.150042
  11 C :   -0.329011
  12 N :    0.016711
  13 H :    0.177472
  14 H :    0.188578
  15 H :    0.215725
  16 H :    0.207792
  17 Cu:    0.578434

-------------------------------
LOEWDIN REDUCED ORBITAL CHARGES
-------------------------------
  0 C s       :     2.765081  s :     2.765081
      pz      :     0.935191  p :     2.940450
      px      :     0.994040
      py      :     1.011219
      dz2     :     0.044883  d :     0.390019
      dxz     :     0.079843
      dyz     :     0.064532
      dx2y2   :     0.110619
      dxy     :     0.090142
      f0      :     0.005573  f :     0.043963
      f+1     :     0.002553
      f-1     :     0.005755
      f+2     :     0.004861
      f-2     :     0.008490
      f+3     :     0.010275
      f-3     :     0.006456
  1 C s       :     2.755773  s :     2.755773
      pz      :     0.935845  p :     2.929323
      px      :     1.019492
      py      :     0.973986
      dz2     :     0.036972  d :     0.376556
      dxz     :     0.076272
      dyz     :     0.062388
      dx2y2   :     0.114746
      dxy     :     0.086177
      f0      :     0.004611  f :     0.042663
      f+1     :     0.006609
      f-1     :     0.001890
      f+2     :     0.004575
      f-2     :     0.008032
      f+3     :     0.009070
      f-3     :     0.007876
  2 C s       :     2.697925  s :     2.697925
      pz      :     0.919183  p :     2.852326
      px      :     0.967677
      py      :     0.965466
      dz2     :     0.087149  d :     0.540515
      dxz     :     0.103046
      dyz     :     0.079116
      dx2y2   :     0.132371
      dxy     :     0.138833
      f0      :     0.006009  f :     0.060719
      f+1     :     0.007414
      f-1     :     0.005846
      f+2     :     0.006639
      f-2     :     0.011554
      f+3     :     0.013150
      f-3     :     0.010108
  3 C s       :     2.754910  s :     2.754910
      pz      :     0.950906  p :     2.948491
      px      :     0.997914
      py      :     0.999671
      dz2     :     0.041070  d :     0.376759
      dxz     :     0.077896
      dyz     :     0.062408
      dx2y2   :     0.109639
      dxy     :     0.085746
      f0      :     0.005421  f :     0.042855
      f+1     :     0.002522
      f-1     :     0.005472
      f+2     :     0.004694
      f-2     :     0.008245
      f+3     :     0.010123
      f-3     :     0.006376
  4 C s       :     2.765182  s :     2.765182
      pz      :     0.930143  p :     2.940796
      px      :     1.045772
      py      :     0.964881
      dz2     :     0.038377  d :     0.391129
      dxz     :     0.081875
      dyz     :     0.063578
      dx2y2   :     0.119131
      dxy     :     0.088170
      f0      :     0.004786  f :     0.043862
      f+1     :     0.006876
      f-1     :     0.001949
      f+2     :     0.004699
      f-2     :     0.008219
      f+3     :     0.009432
      f-3     :     0.007902
  5 C s       :     2.767012  s :     2.767012
      pz      :     0.966631  p :     2.955479
      px      :     0.999214
      py      :     0.989634
      dz2     :     0.074878  d :     0.380610
      dxz     :     0.062864
      dyz     :     0.057547
      dx2y2   :     0.068166
      dxy     :     0.117155
      f0      :     0.003526  f :     0.042569
      f+1     :     0.005760
      f-1     :     0.005366
      f+2     :     0.006622
      f-2     :     0.007810
      f+3     :     0.006901
      f-3     :     0.006584
  6 H s       :     0.790398  s :     0.790398
      pz      :     0.018604  p :     0.059054
      px      :     0.028142
      py      :     0.012308
  7 H s       :     0.792639  s :     0.792639
      pz      :     0.012666  p :     0.059454
      px      :     0.025930
      py      :     0.020858
  8 H s       :     0.787378  s :     0.787378
      pz      :     0.021139  p :     0.059602
      px      :     0.011157
      py      :     0.027306
  9 H s       :     0.791981  s :     0.791981
      pz      :     0.019723  p :     0.060268
      px      :     0.027152
      py      :     0.013392
 10 H s       :     0.790873  s :     0.790873
      pz      :     0.020603  p :     0.059084
      px      :     0.011134
      py      :     0.027346
 11 C s       :     2.718072  s :     2.718072
      pz      :     0.950309  p :     2.989514
      px      :     0.974602
      py      :     1.064602
      dz2     :     0.125186  d :     0.549365
      dxz     :     0.123805
      dyz     :     0.066456
      dx2y2   :     0.133685
      dxy     :     0.100234
      f0      :     0.006637  f :     0.072060
      f+1     :     0.020940
      f-1     :     0.002225
      f+2     :     0.008715
      f-2     :     0.010697
      f+3     :     0.010762
      f-3     :     0.012084
 12 N s       :     2.940319  s :     2.940319
      pz      :     1.347919  p :     3.824093
      px      :     1.264269
      py      :     1.211906
      dz2     :     0.044297  d :     0.204606
      dxz     :     0.036623
      dyz     :     0.029030
      dx2y2   :     0.035722
      dxy     :     0.058934
      f0      :     0.001119  f :     0.014270
      f+1     :     0.003874
      f-1     :     0.001142
      f+2     :     0.002058
      f-2     :     0.001931
      f+3     :     0.002063
      f-3     :     0.002084
 13 H s       :     0.750024  s :     0.750024
      pz      :     0.025439  p :     0.072504
      px      :     0.013566
      py      :     0.033499
 14 H s       :     0.743824  s :     0.743824
      pz      :     0.028712  p :     0.067598
      px      :     0.017089
      py      :     0.021797
 15 H s       :     0.672332  s :     0.672332
      pz      :     0.026955  p :     0.111942
      px      :     0.034903
      py      :     0.050085
 16 H s       :     0.677331  s :     0.677331
      pz      :     0.048305  p :     0.114877
      px      :     0.023897
      py      :     0.042675
 17 Cus       :     6.292311  s :     6.292311
      pz      :     4.020231  p :    12.103729
      px      :     4.059461
      py      :     4.024037
      dz2     :     2.000662  d :    10.025425
      dxz     :     2.013311
      dyz     :     2.005515
      dx2y2   :     2.003087
      dxy     :     2.002850
      f0      :     0.000012  f :     0.000100
      f+1     :     0.000015
      f-1     :     0.000003
      f+2     :     0.000016
      f-2     :     0.000015
      f+3     :     0.000014
      f-3     :     0.000025


                      *****************************
                      * MAYER POPULATION ANALYSIS *
                      *****************************

  NA   - Mulliken gross atomic population
  ZA   - Total nuclear charge
  QA   - Mulliken gross atomic charge
  VA   - Mayer's total valence
  BVA  - Mayer's bonded valence
  FA   - Mayer's free valence

  ATOM       NA         ZA         QA         VA         BVA        FA
  0 C      6.1206     6.0000    -0.1206     3.8814     3.8814     0.0000
  1 C      6.2207     6.0000    -0.2207     3.9240     3.9240    -0.0000
  2 C      5.8325     6.0000     0.1675     3.7205     3.7205     0.0000
  3 C      6.2462     6.0000    -0.2462     3.9183     3.9183     0.0000
  4 C      6.1308     6.0000    -0.1308     3.9199     3.9199     0.0000
  5 C      6.1574     6.0000    -0.1574     3.8962     3.8962     0.0000
  6 H      0.8592     1.0000     0.1408     0.9651     0.9651     0.0000
  7 H      0.8612     1.0000     0.1388     0.9649     0.9649     0.0000
  8 H      0.8675     1.0000     0.1325     0.9764     0.9764    -0.0000
  9 H      0.8809     1.0000     0.1191     0.9847     0.9847    -0.0000
 10 H      0.8599     1.0000     0.1401     0.9659     0.9659     0.0000
[...]
      9       0.026791   0.009400  -0.196837   0.001718   0.006351   0.072865
     10      -0.138942   0.009910  -0.233345   0.000040  -0.001604  -0.018539
     11       0.101161  -0.002828   0.076083   0.000545   0.003153   0.039478
     12      -0.156270  -0.014035   0.257988  -0.000050  -0.000480  -0.002812
     13       0.071130  -0.008340   0.143791  -0.000128   0.000370   0.007861
     14      -0.118489  -0.000505   0.018351   0.000061  -0.000566  -0.006540
     15       0.185241   0.004557  -0.095244  -0.000039   0.000033  -0.001254
     16      -0.203189   0.008473  -0.101856  -0.000027  -0.000180  -0.000436
     17       0.227334  -0.003904   0.026449  -0.000014   0.000117  -0.000368
     18      -0.214343   0.008319  -0.081117  -0.000509   0.001712  -0.009220
     19      -0.103849   0.021975  -0.295274  -0.000157  -0.000455   0.002193
     20      -0.030173  -0.011201   0.174963   0.000025   0.001032  -0.005689
     21      -0.273966   0.011258  -0.146044   0.000388   0.001236   0.012119
     22       0.306229   0.002741  -0.070451   0.000494   0.000821   0.008591
     23      -0.339509   0.002876  -0.014840   0.000091   0.000188  -0.000663
     24      -0.309739  -0.006767   0.306296  -0.000987   0.001203   0.000418
     25      -0.162681   0.001874  -0.002321  -0.011492   0.010289   0.005536
     26      -0.033909  -0.008220   0.150892   0.007671  -0.007289  -0.003574
     27       0.178405  -0.001466   0.077559  -0.017964  -0.070799  -0.842679
     28       0.194896  -0.011182   0.316536   0.004606   0.017930   0.226136
     29      -0.012508   0.008450  -0.187014  -0.008718  -0.036010  -0.451159
     30       0.164807   0.022619  -0.320564  -0.000348   0.000675   0.009314
     31       0.162493  -0.000014   0.010474  -0.000546  -0.008811  -0.115907
     32      -0.042275   0.009420  -0.149352   0.000425   0.006511   0.083062
     33       0.019396  -0.011621  -0.021535  -0.042092  -0.059215   0.005742
     34      -0.014545  -0.020651  -0.022843  -0.016378   0.061016  -0.004614
     35       0.018096   0.008035   0.003155   0.051335  -0.042290   0.002649
     36       0.001248  -0.007724  -0.001816   0.000435   0.001938  -0.000277
     37      -0.002874  -0.062772  -0.016155   0.000343  -0.001322   0.000047
     38       0.000590  -0.034343  -0.011963   0.000600   0.000399  -0.000180
     39      -0.119204   0.036393  -0.014778  -0.020591   0.002186  -0.001218
     40      -0.098538   0.023521   0.002527   0.469241  -0.335887   0.017032
     41      -0.044903   0.043854   0.021051  -0.654078   0.472708  -0.025032
     42       0.084986   0.012763  -0.006776   0.510145   0.704399  -0.069120
     43       0.113208   0.017499  -0.002055  -0.291055  -0.386819   0.036005
     44       0.023384  -0.033069  -0.000525   0.035396   0.035563  -0.003656
     45      -0.010901  -0.317151  -0.078693  -0.006183  -0.005076   0.001514
     46       0.024080   0.616355   0.144704   0.000173  -0.002566   0.000179
     47       0.005640   0.088646   0.037682   0.002165   0.000955   0.000025
     48       0.018953   0.471375   0.109163   0.000419  -0.017612   0.000831
     49       0.014405   0.437853   0.101890   0.004128   0.015430  -0.000321
     50       0.009111   0.289341   0.069632  -0.001535  -0.008435   0.000173
     51       0.000107   0.000007   0.000042   0.000016  -0.000004   0.000058
     52       0.000229  -0.000218  -0.000261   0.000019  -0.000004  -0.000118
     53       0.000218   0.000087   0.000054  -0.000047   0.000013  -0.000040
                 48         49         50         51         52         53    
      0      -0.036513  -0.007340  -0.044671   0.044690  -0.000018   0.000011
      1       0.009133  -0.000825   0.007707  -0.010826  -0.000059  -0.000020
      2      -0.023248  -0.002796  -0.025961   0.028159   0.000032   0.000002
      3       0.003491  -0.001726   0.000211  -0.001116   0.000106   0.000099
      4      -0.052373   0.034435   0.027017  -0.018231   0.000020  -0.000019
      5       0.038027  -0.024762  -0.018711   0.012199  -0.000002   0.000012
      6      -0.001615   0.001154   0.001297  -0.000962  -0.000126   0.000121
      7      -0.000051   0.000580  -0.000710  -0.000246  -0.000112   0.000060
      8      -0.000668   0.000073   0.001095  -0.000219   0.000085   0.000128
      9       0.002901   0.008733  -0.007920  -0.005497  -0.000065   0.000039
     10       0.000073  -0.001290  -0.000102   0.000111   0.000120   0.000100
     11       0.001116   0.004178  -0.002975  -0.002156  -0.000118  -0.000024
     12       0.000160   0.000481  -0.002525  -0.003214  -0.000017  -0.000057
     13      -0.013613  -0.042578   0.047226   0.028815   0.000017  -0.000029
     14       0.009230   0.028907  -0.032978  -0.020901  -0.000000   0.000003
     15       0.021805   0.040981   0.020439   0.045361  -0.000050   0.000029
     16       0.017113   0.033609   0.012835   0.036906  -0.000004  -0.000013
     17      -0.001846  -0.004518   0.000494  -0.004772  -0.000021   0.000016
     18       0.441560   0.071845   0.498179  -0.498075   0.000098  -0.000033
     19      -0.098304  -0.013173  -0.107121   0.110948   0.000049   0.000027
     20       0.272345   0.042343   0.304684  -0.307349   0.000074  -0.000003
     21      -0.256985  -0.484283  -0.215751  -0.508053   0.000229  -0.000020
     22      -0.204199  -0.386390  -0.167335  -0.404932   0.000228  -0.000062
     23       0.023729   0.045702   0.016941   0.047626   0.000025  -0.000019
     24      -0.034022   0.021516   0.014330  -0.007941  -0.000174   0.000022
     25       0.610314  -0.393020  -0.295116   0.190628  -0.000100   0.000199
     26      -0.440356   0.283444   0.211980  -0.136373   0.000252  -0.000287
     27      -0.028351  -0.084347   0.068928   0.047087   0.001170  -0.000032
     28       0.006860   0.021671  -0.016143  -0.011065  -0.000346  -0.000068
     29      -0.014812  -0.044586   0.035432   0.024233   0.000788   0.000023
     30      -0.008664  -0.026699   0.031666   0.021313   0.000012  -0.000002
     31       0.157195   0.487913  -0.534388  -0.321310   0.000093   0.000016
     32      -0.109712  -0.340299   0.373878   0.225835  -0.000009  -0.000007
     33       0.000263   0.000065  -0.000126  -0.000159   0.000628  -0.001702
     34      -0.000811   0.000493   0.000359  -0.000190  -0.001078   0.001338
     35       0.000984  -0.000575  -0.000417   0.000218   0.001727  -0.000253
     36       0.000031  -0.000073  -0.000020   0.000057  -0.006696  -0.077236
     37       0.000043  -0.000070  -0.000011   0.000029  -0.056981   0.013442
     38       0.000017  -0.000042  -0.000009   0.000037  -0.003178  -0.019550
     39       0.001270  -0.001224  -0.000318   0.000570  -0.001619   0.000374
     40       0.009127  -0.006295  -0.002868   0.002812   0.007200  -0.004508
     41      -0.011640   0.007559   0.003854  -0.003095  -0.005110   0.005377
     42      -0.001870  -0.001075   0.000240   0.002288  -0.008404   0.017040
     43       0.001694  -0.000363  -0.000798  -0.000538   0.007120  -0.009941
     44      -0.000662   0.000254   0.000252   0.000107   0.000610  -0.000253
     45      -0.000021   0.000270   0.000062   0.000012   0.590132   0.671608
     46       0.000131  -0.000278  -0.000045   0.000266   0.237822   0.305415
     47       0.000040  -0.000006  -0.000114   0.000092   0.150264   0.160345
     48       0.000057  -0.000225   0.000064  -0.000153  -0.493809   0.403868
     49       0.000285   0.000023  -0.000119   0.000251   0.556633  -0.497611
     50       0.000173  -0.000236  -0.000071  -0.000009  -0.124120   0.110706
     51      -0.000002   0.000010  -0.000006  -0.000006  -0.000001  -0.000034
     52      -0.000013  -0.000002   0.000001  -0.000007  -0.000061   0.000045
     53      -0.000008   0.000006   0.000000  -0.000014   0.000017  -0.000045


-----------
IR SPECTRUM
-----------

 Mode   freq       eps      Int      T**2         TX        TY        TZ
       cm**-1   L/(mol*cm) km/mol    a.u.
----------------------------------------------------------------------------
  6:     44.25   0.001024    5.17  0.007221  ( 0.036730  0.042123  0.064012)
  7:     83.78   0.000350    1.77  0.001305  ( 0.022466  0.021044  0.018893)
  8:    110.44   0.000593    3.00  0.001675  (-0.036971  0.013453  0.011284)
  9:    146.81   0.003236   16.35  0.006879  (-0.007488 -0.034724 -0.074948)
 10:    301.23   0.000446    2.26  0.000462  (-0.011520 -0.014737 -0.010607)
 11:    349.14   0.000342    1.73  0.000306  (-0.014544  0.009556 -0.001765)
 12:    410.29   0.000283    1.43  0.000215  (-0.003088  0.009211  0.010987)
 13:    423.35   0.000608    3.07  0.000448  (-0.002326  0.019731  0.007289)
 14:    510.42   0.002284   11.54  0.001397  (-0.000521  0.020178  0.031450)
 15:    543.62   0.007276   36.77  0.004177  (-0.057860  0.012080 -0.026139)
 16:    631.44   0.007879   39.82  0.003894  ( 0.062296 -0.002260  0.002802)
 17:    633.58   0.000297    1.50  0.000146  ( 0.011179 -0.004613  0.000171)
 18:    727.19   0.017511   88.50  0.007515  (-0.033925  0.044679  0.066088)
 19:    773.77   0.007660   38.71  0.003089  (-0.005947  0.030618  0.046003)
 20:    816.82   0.004624   23.37  0.001767  (-0.011810 -0.022026 -0.033794)
 21:    865.33   0.000296    1.50  0.000107  ( 0.006754 -0.001659  0.007646)
 22:    929.65   0.008312   42.01  0.002790  ( 0.004581 -0.021358 -0.048095)
 23:    938.75   0.002029   10.25  0.000674  (-0.009069 -0.012113 -0.021107)
 24:    977.50   0.003348   16.92  0.001069  ( 0.007866  0.020085  0.024564)
 25:    990.78   0.000221    1.12  0.000070  ( 0.002997  0.001687  0.007608)
 26:   1014.47   0.000340    1.72  0.000105  ( 0.001616  0.004217  0.009177)
 27:   1020.26   0.000281    1.42  0.000086  (-0.005063 -0.004667 -0.006203)
 28:   1038.58   0.000997    5.04  0.000300  (-0.011903 -0.010362  0.007116)
 29:   1078.55   0.017368   87.77  0.005025  ( 0.009480  0.008880 -0.069689)
 30:   1113.83   0.002618   13.23  0.000734  ( 0.018254 -0.007396 -0.018591)
 31:   1158.19   0.001505    7.61  0.000406  ( 0.004224 -0.008324  0.017846)
 32:   1181.26   0.000086    0.44  0.000023  ( 0.000690  0.003172 -0.003508)
 33:   1195.16   0.000057    0.29  0.000015  ( 0.000005 -0.003314  0.001964)
 34:   1237.38   0.002692   13.60  0.000679  (-0.018721 -0.016956  0.006393)
 35:   1302.72   0.000857    4.33  0.000205  (-0.004624 -0.012299  0.005720)
 36:   1342.56   0.000155    0.79  0.000036  (-0.001938  0.002884  0.004902)
 37:   1363.08   0.000007    0.04  0.000002  (-0.000277 -0.000738  0.001011)
 38:   1398.53   0.003856   19.49  0.000860  (-0.018854 -0.021427 -0.006764)
 39:   1496.56   0.001552    7.84  0.000324  ( 0.011807 -0.013009  0.003861)
 40:   1497.28   0.000985    4.98  0.000205  (-0.008907 -0.007291  0.008534)
 41:   1517.26   0.001808    9.14  0.000372  ( 0.015410  0.010756 -0.004335)
 42:   1600.48   0.001400    7.07  0.000273  (-0.011139  0.005234 -0.011020)
 43:   1620.12   0.010228   51.69  0.001970  ( 0.002701  0.043796  0.006690)
 44:   1652.02   0.000421    2.13  0.000080  ( 0.003231  0.006593  0.005067)
 45:   3064.96   0.005718   28.89  0.000582  (-0.015053 -0.004816  0.018231)
 46:   3115.29   0.001916    9.69  0.000192  (-0.008698  0.007814 -0.007434)
 47:   3130.51   0.001385    7.00  0.000138  ( 0.009444  0.004026  0.005713)
 48:   3172.47   0.000514    2.60  0.000051  (-0.002663 -0.005534  0.003584)
 49:   3179.52   0.000498    2.52  0.000049  ( 0.006017  0.003533 -0.000447)
 50:   3188.18   0.002921   14.76  0.000286  (-0.003603  0.012886 -0.010340)
 51:   3197.74   0.001859    9.39  0.000181  ( 0.011689  0.006126  0.002690)
 52:   3468.33   0.005718   28.90  0.000515  ( 0.004156  0.022195  0.002149)
 53:   3530.05   0.010952   55.35  0.000968  ( 0.029007 -0.007644  0.008269)

* The epsilon (eps) is given for a Dirac delta lineshape.
** The dipole moment derivative (T) already includes vibrational overlap.

The first frequency considered to be a vibration is 6
The total number of vibrations considered is 48


--------------------------
THERMOCHEMISTRY AT 298.15K
--------------------------

Temperature         ... 298.15 K
Pressure            ... 1.00 atm
Total Mass          ... 170.71 AMU

Throughout the following assumptions are being made:
  (1) The electronic state is orbitally nondegenerate
  (2) There are no thermally accessible electronically excited states
  (3) Hindered rotations indicated by low frequency modes are not
      treated as such but are treated as vibrations and this may
      cause some error
  (4) All equations used are the standard statistical mechanics
      equations for an ideal gas
  (5) All vibrations are strictly harmonic

freq.      44.25  E(vib)   ...       0.53 
freq.      83.78  E(vib)   ...       0.48 
freq.     110.44  E(vib)   ...       0.45 
freq.     146.81  E(vib)   ...       0.41 
freq.     301.23  E(vib)   ...       0.26 
freq.     349.14  E(vib)   ...       0.23 
freq.     410.29  E(vib)   ...       0.19 
freq.     423.35  E(vib)   ...       0.18 
freq.     510.42  E(vib)   ...       0.14 
freq.     543.62  E(vib)   ...       0.12 
freq.     631.44  E(vib)   ...       0.09 
freq.     633.58  E(vib)   ...       0.09 
freq.     727.19  E(vib)   ...       0.06 
freq.     773.77  E(vib)   ...       0.05 
freq.     816.82  E(vib)   ...       0.05 
freq.     865.33  E(vib)   ...       0.04 
freq.     929.65  E(vib)   ...       0.03 
freq.     938.75  E(vib)   ...       0.03 
freq.     977.50  E(vib)   ...       0.03 
freq.     990.78  E(vib)   ...       0.02 
freq.    1014.47  E(vib)   ...       0.02 
freq.    1020.26  E(vib)   ...       0.02 
freq.    1038.58  E(vib)   ...       0.02 
freq.    1078.55  E(vib)   ...       0.02 
freq.    1113.83  E(vib)   ...       0.01 
freq.    1158.19  E(vib)   ...       0.01 
freq.    1181.26  E(vib)   ...       0.01 
freq.    1195.16  E(vib)   ...       0.01 
freq.    1237.38  E(vib)   ...       0.01 
freq.    1302.72  E(vib)   ...       0.01 
freq.    1342.56  E(vib)   ...       0.01 
freq.    1363.08  E(vib)   ...       0.01 
freq.    1398.53  E(vib)   ...       0.00 
freq.    1496.56  E(vib)   ...       0.00 
freq.    1497.28  E(vib)   ...       0.00 
freq.    1517.26  E(vib)   ...       0.00 
freq.    1600.48  E(vib)   ...       0.00 
freq.    1620.12  E(vib)   ...       0.00 
freq.    1652.02  E(vib)   ...       0.00 
freq.    3064.96  E(vib)   ...       0.00 
freq.    3115.29  E(vib)   ...       0.00 
freq.    3130.51  E(vib)   ...       0.00 
freq.    3172.47  E(vib)   ...       0.00 
freq.    3179.52  E(vib)   ...       0.00 
freq.    3188.18  E(vib)   ...       0.00 
freq.    3197.74  E(vib)   ...       0.00 
freq.    3468.33  E(vib)   ...       0.00 
freq.    3530.05  E(vib)   ...       0.00 

------------
INNER ENERGY
------------

The inner energy is: U= E(el) + E(ZPE) + E(vib) + E(rot) + E(trans)
    E(el)   - is the total energy from the electronic structure calculation
              = E(kin-el) + E(nuc-el) + E(el-el) + E(nuc-nuc)
    E(ZPE)  - the the zero temperature vibrational energy from the frequency calculation
    E(vib)  - the the finite temperature correction to E(ZPE) due to population
              of excited vibrational states
    E(rot)  - is the rotational thermal energy
    E(trans)- is the translational thermal energy

Summary of contributions to the inner energy U:
Electronic energy                ...  -1967.19563460 Eh
Zero point energy                ...      0.14827102 Eh      93.04 kcal/mol
Thermal vibrational correction   ...      0.00581859 Eh       3.65 kcal/mol
Thermal rotational correction    ...      0.00141627 Eh       0.89 kcal/mol
Thermal translational correction ...      0.00141627 Eh       0.89 kcal/mol
-----------------------------------------------------------------------
Total thermal energy                  -1967.03871245 Eh


Summary of corrections to the electronic energy:
(perhaps to be used in another calculation)
Total thermal correction                  0.00865113 Eh       5.43 kcal/mol
Non-thermal (ZPE) correction              0.14827102 Eh      93.04 kcal/mol
-----------------------------------------------------------------------
Total correction                          0.15692215 Eh      98.47 kcal/mol


--------
ENTHALPY
--------

The enthalpy is H = U + kB*T
                kB is Boltzmann's constant
Total free energy                 ...  -1967.03871245 Eh 
Thermal Enthalpy correction       ...      0.00094421 Eh       0.59 kcal/mol
-----------------------------------------------------------------------
Total Enthalpy                    ...  -1967.03776824 Eh


Note: Only C1 symmetry has been detected, increase convergence thresholds 
      if your molecule has a higher symmetry. Symmetry factor of 1.0 is   
      used for the rotational entropy correction. 
 

Note: Rotational entropy computed according to Herzberg 
Infrared and Raman Spectra, Chapter V,1, Van Nostrand Reinhold, 1945 
Point Group:  C1, Symmetry Number:   1  
Rotational constants in cm-1:     0.071022     0.031440     0.025535 

Vibrational entropy computed according to the QRRHO of S. Grimme
Chem.Eur.J. 2012 18 9955


-------
ENTROPY
-------

The entropy contributions are T*S = T*(S(el)+S(vib)+S(rot)+S(trans))
     S(el)   - electronic entropy
     S(vib)  - vibrational entropy
     S(rot)  - rotational entropy
     S(trans)- translational entropy
The entropies will be listed as multiplied by the temperature to get
units of energy

Electronic entropy                ...      0.00000000 Eh      0.00 kcal/mol
Vibrational entropy               ...      0.01003292 Eh      6.30 kcal/mol
Rotational entropy                ...      0.01412415 Eh      8.86 kcal/mol
Translational entropy             ...      0.01962863 Eh     12.32 kcal/mol
-----------------------------------------------------------------------
Final entropy term                ...      0.04378570 Eh     27.48 kcal/mol

In case the symmetry of your molecule has not been determined correctly
or in case you have a reason to use a different symmetry number we print 
out the resulting rotational entropy values for sn=1,12 :
 --------------------------------------------------------
|  sn= 1 | S(rot)=       0.01412415 Eh      8.86 kcal/mol|
|  sn= 2 | S(rot)=       0.01346970 Eh      8.45 kcal/mol|
|  sn= 3 | S(rot)=       0.01308687 Eh      8.21 kcal/mol|
|  sn= 4 | S(rot)=       0.01281524 Eh      8.04 kcal/mol|
|  sn= 5 | S(rot)=       0.01260455 Eh      7.91 kcal/mol|
|  sn= 6 | S(rot)=       0.01243241 Eh      7.80 kcal/mol|
|  sn= 7 | S(rot)=       0.01228686 Eh      7.71 kcal/mol|
|  sn= 8 | S(rot)=       0.01216079 Eh      7.63 kcal/mol|
|  sn= 9 | S(rot)=       0.01204958 Eh      7.56 kcal/mol|
|  sn=10 | S(rot)=       0.01195010 Eh      7.50 kcal/mol|
|  sn=11 | S(rot)=       0.01186011 Eh      7.44 kcal/mol|
|  sn=12 | S(rot)=       0.01177795 Eh      7.39 kcal/mol|
 --------------------------------------------------------


-------------------
GIBBS FREE ENERGY
-------------------

The Gibbs free energy is G = H - T*S

Total enthalpy                    ...  -1967.03776824 Eh 
Total entropy correction          ...     -0.04378570 Eh    -27.48 kcal/mol
-----------------------------------------------------------------------
Final Gibbs free energy         ...  -1967.08155395 Eh

For completeness - the Gibbs free energy minus the electronic energy
G-E(el)                           ...      0.11408065 Eh     71.59 kcal/mol


Timings for individual modules:

Sum of individual times         ...    18626.840 sec (= 310.447 min)
GTO integral calculation        ...      517.305 sec (=   8.622 min)   2.8 %
SCF iterations                  ...    16045.100 sec (= 267.418 min)  86.1 %
SCF Gradient evaluation         ...      904.493 sec (=  15.075 min)   4.9 %
Geometry relaxation             ...        2.799 sec (=   0.047 min)   0.0 %
Analytical frequency calculation...     1157.143 sec (=  19.286 min)   6.2 %
                             ****ORCA TERMINATED NORMALLY****
TOTAL RUN TIME: 0 days 5 hours 15 minutes 14 seconds 53 msec
