
                                 *****************
                                 * O   R   C   A *
                                 *****************

                                            #,                                       
                                            ###                                      
                                            ####                                     
                                            #####                                    
                                            ######                                   
                                           ########,                                 
                                     ,,################,,,,,                         
                               ,,#################################,,                 
                          ,,##########################################,,             
                       ,#########################################, ''#####,          
                    ,#############################################,,   '####,        
                  ,##################################################,,,,####,       
                ,###########''''           ''''###############################       
              ,#####''   ,,,,##########,,,,          '''####'''          '####       
            ,##' ,,,,###########################,,,                        '##       
           ' ,,###''''                  '''############,,,                           
         ,,##''                                '''############,,,,        ,,,,,,###''
      ,#''                                            '''#######################'''  
     '                                                          ''''####''''         
             ,#######,   #######,   ,#######,      ##                                
            ,#'     '#,  ##    ##  ,#'     '#,    #''#        ######   ,####,        
            ##       ##  ##   ,#'  ##            #'  '#       #        #'  '#        
            ##       ##  #######   ##           ,######,      #####,   #    #        
            '#,     ,#'  ##    ##  '#,     ,#' ,#      #,         ##   #,  ,#        
             '#######'   ##     ##  '#######'  #'      '#     #####' # '####'        



                  #######################################################
                  #                        -***-                        #
                  #          Department of theory and spectroscopy      #
                  #    Directorship and core code : Frank Neese         #
                  #        Max Planck Institute fuer Kohlenforschung    #
                  #                Kaiser Wilhelm Platz 1               #
                  #                 D-45470 Muelheim/Ruhr               #
                  #                      Germany                        #
                  #                                                     #
                  #                  All rights reserved                #
                  #                        -***-                        #
                  #######################################################


                         Program Version 5.0.3 -  RELEASE  -


 With contributions from (in alphabetic order):
   Daniel Aravena         : Magnetic Suceptibility
   Michael Atanasov       : Ab Initio Ligand Field Theory (pilot matlab implementation)
   Alexander A. Auer      : GIAO ZORA, VPT2 properties, NMR spectrum
   Ute Becker             : Parallelization
   Giovanni Bistoni       : ED, misc. LED, open-shell LED, HFLD
   Martin Brehm           : Molecular dynamics
   Dmytro Bykov           : SCF Hessian
   Vijay G. Chilkuri      : MRCI spin determinant printing, contributions to CSF-ICE
   Dipayan Datta          : RHF DLPNO-CCSD density
   Achintya Kumar Dutta   : EOM-CC, STEOM-CC
   Dmitry Ganyushin       : Spin-Orbit,Spin-Spin,Magnetic field MRCI
   Miquel Garcia          : C-PCM and meta-GGA Hessian, CC/C-PCM, Gaussian charge scheme
   Yang Guo               : DLPNO-NEVPT2, F12-NEVPT2, CIM, IAO-localization
   Andreas Hansen         : Spin unrestricted coupled pair/coupled cluster methods
   Benjamin Helmich-Paris : MC-RPA, TRAH-SCF, COSX integrals
   Lee Huntington         : MR-EOM, pCC
   Robert Izsak           : Overlap fitted RIJCOSX, COSX-SCS-MP3, EOM
   Marcus Kettner         : VPT2
   Christian Kollmar      : KDIIS, OOCD, Brueckner-CCSD(T), CCSD density, CASPT2, CASPT2-K
   Simone Kossmann        : Meta GGA functionals, TD-DFT gradient, OOMP2, MP2 Hessian
   Martin Krupicka        : Initial AUTO-CI
   Lucas Lang             : DCDCAS
   Marvin Lechner         : AUTO-CI (C++ implementation), FIC-MRCC
   Dagmar Lenk            : GEPOL surface, SMD
   Dimitrios Liakos       : Extrapolation schemes; Compound Job, initial MDCI parallelization
   Dimitrios Manganas     : Further ROCIS development; embedding schemes
   Dimitrios Pantazis     : SARC Basis sets
   Anastasios Papadopoulos: AUTO-CI, single reference methods and gradients
   Taras Petrenko         : DFT Hessian,TD-DFT gradient, ASA, ECA, R-Raman, ABS, FL, XAS/XES, NRVS
   Peter Pinski           : DLPNO-MP2, DLPNO-MP2 Gradient
   Christoph Reimann      : Effective Core Potentials
   Marius Retegan         : Local ZFS, SOC
   Christoph Riplinger    : Optimizer, TS searches, QM/MM, DLPNO-CCSD(T), (RO)-DLPNO pert. Triples
   Tobias Risthaus        : Range-separated hybrids, TD-DFT gradient, RPA, STAB
   Michael Roemelt        : Original ROCIS implementation
   Masaaki Saitow         : Open-shell DLPNO-CCSD energy and density
   Barbara Sandhoefer     : DKH picture change effects
   Avijit Sen             : IP-ROCIS
   Kantharuban Sivalingam : CASSCF convergence, NEVPT2, FIC-MRCI
   Bernardo de Souza      : ESD, SOC TD-DFT
   Georgi Stoychev        : AutoAux, RI-MP2 NMR, DLPNO-MP2 response
   Willem Van den Heuvel  : Paramagnetic NMR
   Boris Wezisla          : Elementary symmetry handling
   Frank Wennmohs         : Technical directorship


 We gratefully acknowledge several colleagues who have allowed us to
 interface, adapt or use parts of their codes:
   Stefan Grimme, W. Hujo, H. Kruse, P. Pracht,  : VdW corrections, initial TS optimization,
                  C. Bannwarth, S. Ehlert          DFT functionals, gCP, sTDA/sTD-DF
   Ed Valeev, F. Pavosevic, A. Kumar             : LibInt (2-el integral package), F12 methods
   Garnet Chan, S. Sharma, J. Yang, R. Olivares  : DMRG
   Ulf Ekstrom                                   : XCFun DFT Library
   Mihaly Kallay                                 : mrcc  (arbitrary order and MRCC methods)
   Jiri Pittner, Ondrej Demel                    : Mk-CCSD
   Frank Weinhold                                : gennbo (NPA and NBO analysis)
   Christopher J. Cramer and Donald G. Truhlar   : smd solvation model
   Lars Goerigk                                  : TD-DFT with DH, B97 family of functionals
   V. Asgeirsson, H. Jonsson                     : NEB implementation
   FAccTs GmbH                                   : IRC, NEB, NEB-TS, DLPNO-Multilevel, CI-OPT
                                                   MM, QMMM, 2- and 3-layer-ONIOM, Crystal-QMMM,
                                                   LR-CPCM, SF, NACMEs, symmetry and pop. for TD-DFT,
                                                   nearIR, NL-DFT gradient (VV10), updates on ESD,
                                                   ML-optimized integration grids
   S Lehtola, MJT Oliveira, MAL Marques          : LibXC Library
   Liviu Ungur et al                             : ANISO software


 Your calculation uses the libint2 library for the computation of 2-el integrals
 For citations please refer to: http://libint.valeyev.net

 Your ORCA version has been built with support for libXC version: 5.1.0
 For citations please refer to: https://tddft.org/programs/libxc/

 This ORCA versions uses:
   CBLAS   interface :  Fast vector & matrix operations
   LAPACKE interface :  Fast linear algebra routines
   SCALAPACK package :  Parallel linear algebra routines
   Shared memory     :  Shared parallel matrices
   BLAS/LAPACK       :  OpenBLAS 0.3.15  USE64BITINT DYNAMIC_ARCH NO_AFFINITY Haswell SINGLE_THREADED
        Core in use  :  Haswell
   Copyright (c) 2011-2014, The OpenBLAS Project




***************************************
The coordinates will be read from file: reactant_opt_unconstrained.xyz
***************************************


Your calculation utilizes the atom-pairwise dispersion correction
with the Becke-Johnson damping scheme (D3BJ)
Cite in your paper:
S.Grimme, S.Ehrlich, L.Goerigk, J Comput Chem, (2011), 32, 1456–1465 
S.Grimme, J.Antony, S.Ehrlich and H.Krieg, J.Chem.Phys., 132, (2010), 154104 
   

Your calculation utilizes a Nudged-Elastic-Band implementation
 by V.Asgeirsson, C. Riplinger & H. Jonsson
Please cite in your paper:
 V. Asgeirsson et al., in prep. (2019)
   

================================================================================

----- Orbital basis set information -----
Your calculation utilizes the basis: def2-TZVP
   F. Weigend and R. Ahlrichs, Phys. Chem. Chem. Phys. 7, 3297 (2005).

----- AuxJ basis set information -----
Your calculation utilizes the auxiliary basis: def2/J
   F. Weigend, Phys. Chem. Chem. Phys. 8, 1057 (2006).

================================================================================
                                        WARNINGS
                       Please study these warnings very carefully!
================================================================================


WARNING: Geometry Optimization
  ===> : Switching off AutoStart
         For restart on a previous wavefunction, please use MOREAD

INFO   : the flag for use of the SHARK integral package has been found!

================================================================================
                                       INPUT FILE
================================================================================
NAME = orca.inp
|  1> !B3LYP DEF2-TZVP D3BJ
|  2> !NEB-TS FREQ TightOPT TightSCF defgrid2
|  3> %SCF
|  4>     MaxIter 2000       # Here setting MaxIter to a very high number. Intended for systems that require sometimes 1000 iterations before converging (very rare).
|  5>     DIISMaxEq 5        # Default value is 5. A value of 15-40 necessary for difficult systems.
|  6>     directresetfreq 15 # Default value is 15. A value of 1 (very expensive) is sometimes required. A value between 1 and 15 may be more cost-effective.
|  7> END
|  8> %CPCM EPSILON 6.02 REFRAC 1.3723 END
|  9> %PAL NPROCS 32 END
| 10> %maxcore 2000 # This indicates you want ORCA to use only 2GB per core maximum, so ORCA will use only 2GB*32=64GB of memory in total.
| 11> %NEB
| 12>     NEB_END_XYZFILE "product_opt.xyz"
| 13>     Nimages 100
| 14>     Interpolation IDPP
| 15>     Opt_Method LBFGS
| 16> END
| 17> * XYZfile 1 1 reactant_opt_unconstrained.xyz
| 18> 
| 19>                          ****END OF INPUT****
================================================================================


--------------------------------------------------------------------------------
                        Nudged Elastic Band Calculation
--------------------------------------------------------------------------------

Number of images (incl. end points)     ....  102
Number of intermediate images           ....  100
Number of optimized images              ....  100
Optimization of end points before NEB   ....  NO
Use existing gbw files for MO input     ....  NO
Number of atoms                         ....  18
Number of (active) degrees of freedom   ....  54
Constrained atoms                       ....  None

-----------------------------------------
  REACTANT (ANGSTROEM)
-----------------------------------------
C     -2.983016     1.805909     1.618166 
C     -1.890264     2.662351     1.508778 
C     -0.723388     2.407985     2.222229 
C     -0.659275     1.270597     3.042771 
C     -1.756465     0.420588     3.159633 
C     -2.922191     0.692619     2.449264 
H     -3.885584     2.013135     1.057595 
H     -3.774943     0.031730     2.534495 
H     -1.947080     3.535778     0.870370 
H      0.272793     1.019723     3.542888 
H     -1.692190    -0.459094     3.786937 
C      0.419449     3.388166     2.232339 
N      0.316093     4.232427     3.464312 
H      0.411941     4.014753     1.340039 
H      1.372801     2.863825     2.281353 
H      1.214410     4.651792     3.687901 
H     -0.327699     5.002730     3.298991 
Cu    -0.476922     3.075522     4.885386 

-----------------------------------------
  PRODUCT (ANGSTROEM)
-----------------------------------------
C     -2.990957     1.813887     1.613458 
C     -1.907360     2.667010     1.510144 
C     -0.730234     2.403506     2.234471 
C     -0.659696     1.266548     3.061268 
C     -1.747098     0.422571     3.158609 
C     -2.911274     0.692362     2.434639 
H     -3.895607     2.017813     1.057077 
H     -3.757444     0.022273     2.514110 
H     -1.954891     3.540233     0.872198 
H      0.237030     1.038069     3.622086 
H     -1.696077    -0.450664     3.794681 
C      0.347170     3.333412     2.080250 
N      1.522959     3.296015     2.748562 
H      0.163780     4.245652     1.524520 
H      1.761279     2.043288    -0.536808 
H      2.057217     4.155056     2.833712 
H      1.672737     2.625655     3.495355 
Cu     1.910925     2.501772     0.894708 



----------------------
NEB settings
----------------------
Method type                             ....  climbing image
Threshold for climbing image            ....  2.00e-02 Eh/Bohr 
Free endpoints                          ....  off 
Tangent type                            ....  improved 
Number of intermediate images           ....  100 
Number of images free to move           ....  100 
Spring type for image distribution      ....  distance between adjacent images 
Spring constant                         ....  energy weighted (0.0100 -to- 0.1000) Eh/Bohr^2 
Spring force perp. to the path          ....  none 
Generation of initial path              ....  image dependent pair potential 
Initial path via TS guess               ....  off 

Minimization of RMSD: Rotation          ....  always 
Minimization of RMSD: Translation type  ....  centroid 
Center fixed to origin                  ....  true 
Remove external force                   ....  true 

Reparametrization of the path           ....  off 
Convergence thresholds:
Convergence monitored for               ....  all images
Scaling factor                          ....  10.00

Convergence parameters for regular images:
               Max(|Fp|)                ....  2.00e-02 Eh/Bohr
               RMS(Fp)                  ....  1.00e-02 Eh/Bohr

Convergence parameters for climbing image:
               Max(|F|)                 ....  2.00e-03 Eh/Bohr
               RMS(F)                   ....  1.00e-03 Eh/Bohr
Optimization method:
Method                                  ....  L-BFGS
Max. iterations                         ....  500 
Step size                               ....  1.00 
Maximum allowed step size               ....  0.10 Bohr

LBFGS parameters: 
               Memory                   ....  20 
               Initial step size        ....  0.0010 
               Estimate curvature       ....  YES 
               Reset on maxmove         ....  YES 
               Reparam. on reset        ....  NO 
Generation of  the initial path:
Minimize RMSD between reactant and product configurations     .... done
       RMSD before minimization         ....  1.7277 Bohr
       RMSD after minimization          ....  1.3191 Bohr
Performing linear interpolation         ....  done
Interpolation using                     ....  IDPP (Image Dependent Pair Potential)
IDPP-Settings:
       Remove global transl. and rot.   ...   true
       Convergence tolerance            ....  0.0100 1/Ang.^3
       Max. numer of iterations         ....    7000
       Spring constant                  ....  1.0000 1/Ang.^4
       Time step                        ....  0.0100 fs
       Max. movement per iteration      ....  0.0500 Ang.
       Full print                       ....  false 
idpp initial path generation successfully converged in 77 iterations
Displacement along initial path:             11.9291 Bohr
Writing initial trajectory to file      ....  orca_initial_path_trj.xyz



----------------------
NEB OPTIMIZATION      
----------------------

Following output files will be written:
Energy profile during opt. written to    ....  orca.interp
Optimization log-file                    ....  orca.NEB.log
Current trajectory will be written to    ....  orca_MEP_trj.xyz
       and to allxyz file                ....  orca_MEP.allxyz
       and individual images to xyz file ....  orca_im{NIm}.xyz
Trajectory history will be written to    ....  orca_MEP_ALL_trj.xyz
Converged CI will be written to          ....  orca_NEB-CI_converged.xyz
Converged TS will be written to          ....  orca_NEB-TS_converged.xyz

Single point energy and gradient calculation of reactant and
product configurations (have to be performed only once)
Properties of fixed NEB end points:
               Reactant:
                         E               ....  -1967.196202 Eh
                         RMS(F)          ....      0.000033 Eh/Bohr
                         MAX(|F|)        ....      0.000108 Eh/Bohr
               Product:
                         E               ....  -1967.143424 Eh
                         RMS(F)          ....      0.000148 Eh/Bohr
                         MAX(|F|)        ....      0.000411 Eh/Bohr



Starting iterations:

Optim.  Iteration  HEI  E(HEI)-E(0)  max(|Fp|)   RMS(Fp)    dS
Switch-on CI threshold               0.020000 
   LBFGS     0      49   0.139728    0.068082   0.010828  11.9291       
   LBFGS     1      51   0.133933    0.068930   0.009210  11.8967       
   LBFGS     2      52   0.129747    0.070161   0.008539  11.8945       
   LBFGS     3      53   0.126087    0.069981   0.007900  11.8947       
   LBFGS     4      53   0.122658    0.068939   0.007434  11.9142       
   LBFGS     5      54   0.119285    0.068216   0.006859  11.9366       
   LBFGS     6      54   0.115945    0.066892   0.006290  11.9754       
   LBFGS     7      55   0.112576    0.064813   0.005756  12.0217       
   LBFGS     8      55   0.109347    0.062275   0.005272  12.0756       
   LBFGS     9      55   0.106019    0.058199   0.004740  12.1418       
   LBFGS    10      56   0.102617    0.052915   0.004237  12.2161       
   LBFGS    11      56   0.099456    0.047256   0.003769  12.3024       
   LBFGS    12      56   0.096242    0.041382   0.003263  12.4024       
   LBFGS    13      57   0.093189    0.034216   0.002921  12.5107       
   LBFGS    14      57   0.090416    0.027480   0.002393  12.6442       
   LBFGS    15      58   0.087721    0.021614   0.002129  12.7912       
   LBFGS    16      58   0.086016    0.015621   0.001827  12.9825       

Image 58 will be converted to a climbing image in the next iteration (max(|Fp|) < 0.0200) 

Optim.  Iteration  CI   E(CI)-E(0)   max(|Fp|)   RMS(Fp)    dS     max(|FCI|)   RMS(FCI)
Convergence thresholds               0.020000   0.010000            0.002000    0.001000 
   LBFGS    17      58   0.085309    0.013381   0.002907  13.0704    0.008728    0.003856       
   LBFGS    18      58   0.084383    0.014753   0.002739  13.1889    0.008225    0.003612       
   LBFGS    19      58   0.082815    0.034578   0.002816  13.4534    0.008123    0.003406       
   LBFGS    20      58   0.082507    0.009823   0.001135  13.4518    0.005295    0.001609       
   LBFGS    21      58   0.082379    0.006625   0.001110  13.4654    0.005192    0.001634       
   LBFGS    22      58   0.080990    0.051030   0.002140  13.7464    0.004288    0.001728       
   LBFGS    23      58   0.080859    0.010942   0.001259  13.7416    0.004263    0.001533       
   LBFGS    24      58   0.080730    0.012262   0.000935  13.7632    0.004105    0.001230       
   LBFGS    25      58   0.080433    0.031307   0.001265  13.8409    0.003891    0.001301       
   LBFGS    26      58   0.079688    0.045063   0.002143  14.1052    0.003821    0.001771       
   LBFGS    27      58   0.078717    0.046968   0.002667  14.5654    0.005537    0.002373       
   LBFGS    28      58   0.078575    0.027517   0.001100  14.4997    0.003193    0.001042       
   LBFGS    29      58   0.078524    0.019644   0.000830  14.4655    0.003036    0.000948       
   LBFGS    30      58   0.078340    0.008772   0.000749  14.4520    0.002894    0.000851       
   LBFGS    31      58   0.078222    0.011398   0.000918  14.4742    0.002778    0.000940       
   LBFGS    32      58   0.078098    0.012622   0.000802  14.5085    0.002751    0.000802       
   LBFGS    33      58   0.077674    0.022582   0.001198  14.7120    0.002735    0.000910       
   LBFGS    34      58   0.076980    0.032277   0.001537  15.1969    0.002559    0.000858       
   LBFGS    35      58   0.076427    0.041174   0.001743  15.8129    0.002855    0.001352       
   LBFGS    36      58   0.076380    0.035060   0.001324  15.7000    0.002005    0.000981       
   LBFGS    37      58   0.076349    0.030468   0.001155  15.5938    0.001686    0.000861       
   LBFGS    38      58   0.076296    0.017297   0.000926  15.4288    0.001745    0.000849       

                                .--------------------.
          ----------------------| CI-NEB convergence |-------------------------
          Item                value                   Tolerance       Converged
          ---------------------------------------------------------------------
          RMS(Fp)             0.0009258320            0.0100000000      YES
          MAX(|Fp|)           0.0172973770            0.0200000000      YES
          RMS(FCI)            0.0008485633            0.0010000000      YES
          MAX(|FCI|)          0.0017453241            0.0020000000      YES
          ---------------------------------------------------------------------

The elastic band and climbing image have converged successfully to a MEP in 38 iterations!


                    *********************H U R R A Y*********************
                    ***        THE NEB OPTIMIZATION HAS CONVERGED     ***
                    *****************************************************



---------------------------------------------------------------
                         PATH SUMMARY              
---------------------------------------------------------------
All forces in Eh/Bohr.

Image Dist.(Ang.)    E(Eh)   dE(kcal/mol)  max(|Fp|)  RMS(Fp)
  0     0.000   -1967.19620      0.00       0.00011   0.00003
  1     0.052   -1967.19620      0.00       0.00033   0.00016
  2     0.103   -1967.19618      0.01       0.00069   0.00032
  3     0.154   -1967.19616      0.03       0.00058   0.00027
  4     0.203   -1967.19612      0.05       0.00073   0.00034
  5     0.252   -1967.19608      0.08       0.00081   0.00038
  6     0.301   -1967.19602      0.11       0.00082   0.00038
  7     0.348   -1967.19596      0.15       0.00088   0.00041
  8     0.395   -1967.19589      0.19       0.00091   0.00042
  9     0.442   -1967.19582      0.24       0.00093   0.00042
 10     0.490   -1967.19574      0.29       0.00090   0.00041
 11     0.538   -1967.19566      0.34       0.00091   0.00041
 12     0.586   -1967.19559      0.38       0.00089   0.00040
 13     0.636   -1967.19551      0.43       0.00086   0.00038
 14     0.685   -1967.19542      0.49       0.00082   0.00037
 15     0.734   -1967.19533      0.55       0.00077   0.00035
 16     0.783   -1967.19523      0.61       0.00074   0.00033
 17     0.832   -1967.19512      0.68       0.00071   0.00032
 18     0.881   -1967.19501      0.75       0.00069   0.00031
 19     0.932   -1967.19490      0.82       0.00069   0.00030
 20     0.984   -1967.19479      0.88       0.00070   0.00031
 21     1.038   -1967.19469      0.95       0.00072   0.00031
 22     1.093   -1967.19458      1.02       0.00074   0.00032
 23     1.149   -1967.19447      1.08       0.00078   0.00033
 24     1.207   -1967.19436      1.15       0.00083   0.00034
 25     1.266   -1967.19425      1.23       0.00088   0.00036
 26     1.326   -1967.19413      1.30       0.00093   0.00038
 27     1.389   -1967.19401      1.37       0.00098   0.00040
 28     1.455   -1967.19389      1.45       0.00102   0.00041
 29     1.523   -1967.19375      1.54       0.00105   0.00041
 30     1.595   -1967.19359      1.64       0.00107   0.00042
 31     1.668   -1967.19343      1.74       0.00107   0.00041
 32     1.743   -1967.19325      1.85       0.00107   0.00041
 33     1.819   -1967.19305      1.98       0.00106   0.00041
 34     1.895   -1967.19284      2.11       0.00105   0.00040
 35     1.976   -1967.19264      2.24       0.00106   0.00040
 36     2.063   -1967.19243      2.37       0.00108   0.00041
 37     2.153   -1967.19221      2.50       0.00112   0.00042
 38     2.248   -1967.19198      2.65       0.00116   0.00044
 39     2.346   -1967.19175      2.80       0.00122   0.00047
 40     2.451   -1967.19150      2.95       0.00135   0.00051
 41     2.564   -1967.19125      3.11       0.00145   0.00056
 42     2.687   -1967.19098      3.28       0.00161   0.00063
 43     2.826   -1967.19063      3.50       0.00171   0.00068
 44     2.982   -1967.19024      3.74       0.00172   0.00069
 45     3.160   -1967.18976      4.04       0.00200   0.00080
 46     3.384   -1967.18875      4.68       0.00183   0.00079
 47     3.624   -1967.18669      5.97       0.00227   0.00081
 48     3.839   -1967.18352      7.96       0.00262   0.00103
 49     4.053   -1967.17851     11.10       0.00526   0.00227
 50     4.201   -1967.17435     13.71       0.00681   0.00190
 51     4.373   -1967.16837     17.46       0.00776   0.00283
 52     4.613   -1967.15635     25.00       0.01730   0.00358
 53     4.859   -1967.13823     36.38       0.01066   0.00415
 54     4.970   -1967.12953     41.84       0.00180   0.00075
 55     5.054   -1967.12451     44.98       0.00252   0.00114
 56     5.126   -1967.12173     46.73       0.00225   0.00106
 57     5.193   -1967.12033     47.61       0.00202   0.00099
 58     5.258   -1967.11991     47.88       0.00175   0.00085 <= CI
 59     5.335   -1967.12033     47.61       0.00165   0.00078
 60     5.413   -1967.12147     46.89       0.00166   0.00077
 61     5.491   -1967.12307     45.89       0.00176   0.00080
 62     5.570   -1967.12487     44.76       0.00177   0.00084
 63     5.653   -1967.12676     43.57       0.00193   0.00091
 64     5.743   -1967.12859     42.42       0.00230   0.00105
 65     5.843   -1967.13028     41.36       0.00238   0.00114
 66     5.951   -1967.13201     40.28       0.00227   0.00102
 67     6.069   -1967.13378     39.17       0.00199   0.00088
 68     6.193   -1967.13533     38.20       0.00205   0.00091
 69     6.312   -1967.13653     37.44       0.00209   0.00097
 70     6.419   -1967.13743     36.88       0.00209   0.00095
 71     6.514   -1967.13812     36.45       0.00215   0.00102
 72     6.595   -1967.13866     36.11       0.00213   0.00102
 73     6.670   -1967.13912     35.82       0.00216   0.00101
 74     6.738   -1967.13951     35.58       0.00216   0.00102
 75     6.802   -1967.13985     35.36       0.00219   0.00102
 76     6.863   -1967.14016     35.17       0.00217   0.00101
 77     6.921   -1967.14044     34.99       0.00216   0.00100
 78     6.978   -1967.14069     34.83       0.00211   0.00098
 79     7.033   -1967.14093     34.69       0.00205   0.00095
 80     7.087   -1967.14114     34.55       0.00195   0.00091
 81     7.140   -1967.14135     34.42       0.00186   0.00085
 82     7.193   -1967.14155     34.30       0.00170   0.00079
 83     7.245   -1967.14173     34.18       0.00166   0.00077
 84     7.297   -1967.14190     34.07       0.00155   0.00071
 85     7.349   -1967.14206     33.97       0.00143   0.00066
 86     7.400   -1967.14222     33.88       0.00136   0.00063
 87     7.451   -1967.14236     33.78       0.00127   0.00058
 88     7.501   -1967.14250     33.70       0.00120   0.00055
 89     7.551   -1967.14264     33.61       0.00112   0.00052
 90     7.601   -1967.14276     33.53       0.00105   0.00049
 91     7.651   -1967.14288     33.46       0.00098   0.00045
 92     7.702   -1967.14300     33.39       0.00090   0.00042
 93     7.753   -1967.14310     33.32       0.00083   0.00038
 94     7.804   -1967.14319     33.26       0.00075   0.00034
 95     7.855   -1967.14327     33.21       0.00066   0.00030
 96     7.907   -1967.14333     33.17       0.00059   0.00026
 97     7.958   -1967.14338     33.14       0.00047   0.00021
 98     8.009   -1967.14342     33.12       0.00040   0.00018
 99     8.060   -1967.14344     33.11       0.00026   0.00012
100     8.112   -1967.14346     33.10       0.00015   0.00007
101     8.165   -1967.14342     33.12       0.00040   0.00014

Straight line distance between images along the path:
        D( 0- 1) =   0.0518 Ang.
        D( 1- 2) =   0.0510 Ang.
        D( 2- 3) =   0.0508 Ang.
        D( 3- 4) =   0.0498 Ang.
        D( 4- 5) =   0.0490 Ang.
        D( 5- 6) =   0.0482 Ang.
        D( 6- 7) =   0.0476 Ang.
        D( 7- 8) =   0.0472 Ang.
        D( 8- 9) =   0.0470 Ang.
        D( 9-10) =   0.0474 Ang.
        D(10-11) =   0.0479 Ang.
        D(11-12) =   0.0486 Ang.
        D(12-13) =   0.0492 Ang.
        D(13-14) =   0.0495 Ang.
        D(14-15) =   0.0493 Ang.
        D(15-16) =   0.0489 Ang.
        D(16-17) =   0.0488 Ang.
        D(17-18) =   0.0493 Ang.
        D(18-19) =   0.0506 Ang.
        D(19-20) =   0.0522 Ang.
        D(20-21) =   0.0536 Ang.
        D(21-22) =   0.0550 Ang.
        D(22-23) =   0.0562 Ang.
        D(23-24) =   0.0577 Ang.
        D(24-25) =   0.0592 Ang.
        D(25-26) =   0.0608 Ang.
        D(26-27) =   0.0627 Ang.
        D(27-28) =   0.0654 Ang.
        D(28-29) =   0.0686 Ang.
        D(29-30) =   0.0714 Ang.
        D(30-31) =   0.0736 Ang.
        D(31-32) =   0.0749 Ang.
        D(32-33) =   0.0754 Ang.
        D(33-34) =   0.0769 Ang.
        D(34-35) =   0.0809 Ang.
        D(35-36) =   0.0863 Ang.
        D(36-37) =   0.0907 Ang.
        D(37-38) =   0.0943 Ang.
        D(38-39) =   0.0984 Ang.
        D(39-40) =   0.1045 Ang.
        D(40-41) =   0.1133 Ang.
        D(41-42) =   0.1235 Ang.
        D(42-43) =   0.1383 Ang.
        D(43-44) =   0.1568 Ang.
        D(44-45) =   0.1775 Ang.
        D(45-46) =   0.2237 Ang.
        D(46-47) =   0.2406 Ang.
        D(47-48) =   0.2151 Ang.
        D(48-49) =   0.2139 Ang.
        D(49-50) =   0.1473 Ang.
        D(50-51) =   0.1720 Ang.
        D(51-52) =   0.2399 Ang.
        D(52-53) =   0.2468 Ang.
        D(53-54) =   0.1109 Ang.
        D(54-55) =   0.0837 Ang.
        D(55-56) =   0.0722 Ang.
        D(56-57) =   0.0667 Ang.
        D(57-58) =   0.0647 Ang.
        D(58-59) =   0.0776 Ang.
        D(59-60) =   0.0774 Ang.
        D(60-61) =   0.0787 Ang.
        D(61-62) =   0.0792 Ang.
        D(62-63) =   0.0825 Ang.
        D(63-64) =   0.0898 Ang.
        D(64-65) =   0.0999 Ang.
        D(65-66) =   0.1086 Ang.
        D(66-67) =   0.1181 Ang.
        D(67-68) =   0.1241 Ang.
        D(68-69) =   0.1192 Ang.
        D(69-70) =   0.1069 Ang.
        D(70-71) =   0.0941 Ang.
        D(71-72) =   0.0817 Ang.
        D(72-73) =   0.0746 Ang.
        D(73-74) =   0.0681 Ang.
        D(74-75) =   0.0641 Ang.
        D(75-76) =   0.0608 Ang.
        D(76-77) =   0.0587 Ang.
        D(77-78) =   0.0565 Ang.
        D(78-79) =   0.0553 Ang.
        D(79-80) =   0.0539 Ang.
        D(80-81) =   0.0532 Ang.
        D(81-82) =   0.0525 Ang.
        D(82-83) =   0.0524 Ang.
        D(83-84) =   0.0518 Ang.
        D(84-85) =   0.0518 Ang.
        D(85-86) =   0.0514 Ang.
        D(86-87) =   0.0508 Ang.
        D(87-88) =   0.0504 Ang.
        D(88-89) =   0.0500 Ang.
        D(89-90) =   0.0499 Ang.
        D(90-91) =   0.0501 Ang.
        D(91-92) =   0.0504 Ang.
        D(92-93) =   0.0509 Ang.
        D(93-94) =   0.0512 Ang.
        D(94-95) =   0.0514 Ang.
        D(95-96) =   0.0513 Ang.
        D(96-97) =   0.0511 Ang.
        D(97-98) =   0.0511 Ang.
        D(98-99) =   0.0516 Ang.
        D(99-100) =   0.0521 Ang.
        D(100-101) =   0.0521 Ang.

---------------------------------------------------------------
               INFORMATION ABOUT SADDLE POINT     
---------------------------------------------------------------

Climbing image                            ....  58 
Energy                                    ....  -1967.11990535 Eh
Max. abs. force                           ....  1.7453e-03 Eh/Bohr

-----------------------------------------
  SADDLE POINT (ANGSTROEM)
-----------------------------------------
C     -1.772840    -0.717598    -1.340277 
C     -0.747912     0.214907    -1.230646 
C      0.138917     0.158517    -0.156334 
C     -0.012529    -0.841763     0.810134 
C     -1.023908    -1.780229     0.689004 
C     -1.905689    -1.723067    -0.387130 
H     -2.459711    -0.665862    -2.174203 
H     -2.685210    -2.466133    -0.488036 
H     -0.638486     0.990970    -1.979398 
H      0.683803    -0.910703     1.638247 
H     -1.112633    -2.571609     1.423214 
C      1.218454     1.168396    -0.073617 
N      1.286024     1.966101     1.088791 
H      1.412537     1.712807    -0.987724 
H      2.612833     0.105346    -0.490696 
H      1.598416     2.919140     0.960648 
H      0.536571     1.860885     1.759779 
Cu     2.871364     0.579895     0.938244 

-----------------------------------------
  FORCES (Eh/Bohr)
-----------------------------------------
C     -0.000291    -0.001662     0.001317 
C      0.000222     0.001103    -0.001424 
C      0.000198    -0.001352     0.001423 
C      0.000420     0.001412    -0.001170 
C     -0.000477    -0.001217     0.001197 
C     -0.000055     0.001745    -0.001536 
H     -0.000034     0.000044    -0.000415 
H     -0.000519    -0.000046     0.000120 
H      0.000223    -0.000614     0.000181 
H      0.000164    -0.000124     0.000017 
H     -0.000367     0.000757    -0.000166 
C      0.000203    -0.000147    -0.000608 
N     -0.000370    -0.000510     0.000709 
H      0.000491    -0.000342     0.000282 
H     -0.000793    -0.000305     0.000321 
H     -0.001382     0.000597     0.000020 
H      0.001088    -0.001330     0.000776 
Cu     0.001098     0.001701    -0.000900 

-----------------------------------------
  UNIT TANGENT
-----------------------------------------
C      0.007369    -0.007311    -0.007516 
C     -0.004426    -0.000079    -0.006261 
C     -0.046370     0.036510     0.042744 
C     -0.025223     0.019536     0.025280 
C      0.001376    -0.000876     0.003418 
C      0.002942     0.000628    -0.004183 
H      0.008341    -0.008812    -0.010683 
H      0.005413    -0.001704    -0.003547 
H     -0.000380    -0.000151    -0.002099 
H     -0.018155     0.016357     0.019358 
H      0.002817    -0.004156    -0.003783 
C     -0.252813     0.195942     0.112474 
N     -0.169794     0.101849    -0.006703 
H      0.035912     0.009309     0.063364 
H      0.640675    -0.479023    -0.129902 
H      0.010846     0.052462     0.071646 
H     -0.003137     0.030842     0.155919 
Cu    -0.195394     0.038676    -0.319528 
 => Unit tangent is an approximation to the TS mode at the saddle point

Next a TS optimization is performed on the CI from the NEB run.

         *************************************************************
         *                       TS OPTIMIZATION                     *
         *************************************************************


Following output files will be written:
Converged TS will be written to          ....  orca_NEB-TS_converged.xyz
                                         ....  orca.xyz
Current trajectory will be written to    ....  orca_trj.xyz
Initial Hessian will be stored in        ....  orca.appr.hess
Geometry optimization settings:
Update method            Update   .... Bofill
Choice of coordinates    CoordSys .... Z-matrix Internals
Initial Hessian          InHess   .... Read

Convergence Tolerances:
Energy Change            TolE     ....  1.0000e-06 Eh
Max. Gradient            TolMAXG  ....  1.0000e-04 Eh/bohr
RMS Gradient             TolRMSG  ....  3.0000e-05 Eh/bohr
Max. Displacement        TolMAXD  ....  1.0000e-03 bohr
RMS Displacement         TolRMSD  ....  6.0000e-04 bohr
Strict Convergence                ....  False
------------------------------------------------------------------------------
                        ORCA OPTIMIZATION COORDINATE SETUP
------------------------------------------------------------------------------

The optimization will be done in new redundant internal coordinates
Making redundant internal coordinates   ...  (new redundants) done
Following TS mode number                ...     0
TS-active-atoms for coordinate setup... 11 14 17 
Evaluating the initial hessian          ... (Reading Exact Hessian)...  
InHessName: orca.appr.hess	The file <orca.appr.hess> is opened as a .hess file
done
done
Diagonalizing the Hessian               .... done
Dimension of the hessian                .... 107
Lowest eigenvalues of the non projected Hessian:
 -0.053952436 -0.000000000 -0.000000000 -0.000000000 -0.000000000
done
Evaluating the coordinates              ...  done
Calculating the B-matrix                .... done
Calculating the G-matrix                .... done
Diagonalizing the G-matrix              .... done
The first mode is                       ....   59
The number of degrees of freedom        ....   48

    -----------------------------------------------------------------
                    Redundant Internal Coordinates


    -----------------------------------------------------------------
         Definition                    Initial Value    d2E/dq (diagonal element)
    -----------------------------------------------------------------
      1. B(C   1,C   0)                  1.3900         0.575555   
      2. B(C   2,C   1)                  1.3942         0.356562   
      3. B(C   3,C   2)                  1.3991         0.505626   
      4. B(C   4,C   3)                  1.3850         0.585703   
      5. B(C   5,C   0)                  1.3918         0.569536   
      6. B(C   5,C   4)                  1.3924         0.570783   
      7. B(H   6,C   0)                  1.0816         0.371356   
      8. B(H   7,C   5)                  1.0817         0.371309   
      9. B(H   8,C   1)                  1.0839         0.368239   
     10. B(H   9,C   3)                  1.0842         0.359345   
     11. B(H  10,C   4)                  1.0832         0.369274   
     12. B(C  11,C   2)                  1.4806         0.230090   
     13. B(C  11,C   1)                  2.4727         0.098866   
     14. B(N  12,C  11)                  1.4114         0.409139   
     15. B(H  13,C  11)                  1.0815         0.261675   
     16. B(H  15,N  12)                  1.0111         0.305446   
     17. B(H  16,N  12)                  1.0114         0.273747   
     18. B(Cu 17,H  16)                  2.7870         0.080188   
     19. B(Cu 17,H  15)                  2.6633         0.076947   
     20. B(Cu 17,H  13)                  2.6685         0.081668   
     21. B(Cu 17,H   9)                  2.7381         0.038335   
     22. B(Cu 17,C   3)                  3.2178         0.058001   
     23. B(Cu 17,C   2)                  2.9735         0.087254   
     24. B(Cu 17,H  14)                  1.5277         0.773244   
     25. B(Cu 17,N  12)                  2.1113         0.111112   
     26. B(Cu 17,C  11)                  2.0254         0.149991   
     27. A(C   5,C   0,H   6)          120.1286         0.217057   
     28. A(C   1,C   0,H   6)          119.8002         0.217132   
     29. A(C   1,C   0,C   5)          120.0677         0.158448   
     30. A(C   0,C   1,H   8)          120.0191         0.215466   
     31. A(C   2,C   1,H   8)          119.8038         0.215297   
     32. A(C   0,C   1,C   2)          120.1767         0.153032   
     33. A(C   3,C   2,C  11)          121.8689         0.048831   
     34. A(C   1,C   2,C  11)          118.6366         0.094115   
     35. A(C   1,C   2,C   3)          119.4944         0.105196   
     36. A(C   2,C   3,C   4)          120.2024         0.142370   
     37. A(C   2,C   3,H   9)          120.2362         0.092560   
     38. A(C   4,C   3,H   9)          119.5198         0.154629   
     39. A(C   3,C   4,C   5)          120.1459         0.151554   
     40. A(C   3,C   4,H  10)          119.7089         0.215478   
     41. A(C   5,C   4,H  10)          120.1317         0.215236   
     42. A(C   0,C   5,C   4)          119.8993         0.158629   
     43. A(C   4,C   5,H   7)          120.0182         0.216974   
     44. A(C   0,C   5,H   7)          120.0785         0.217013   
     45. A(H  13,C  11,Cu 17)          114.9652         0.025095   
     46. A(N  12,C  11,Cu 17)           73.3637         0.025611   
     47. A(C   2,C  11,Cu 17)          115.1355         0.027174   
     48. A(N  12,C  11,H  13)          113.7665         0.034048   
     49. A(C   2,C  11,H  13)          115.2760         0.062697   
     50. A(C   2,C  11,N  12)          117.8022         0.039041   
     51. A(H  16,N  12,Cu 17)          122.3713         0.028631   
     52. A(H  15,N  12,Cu 17)          112.1999         0.027854   
     53. A(C  11,N  12,Cu 17)           66.8052         0.027388   
     54. A(H  15,N  12,H  16)          114.2725         0.065808   
     55. A(C  11,N  12,H  16)          116.8785         0.035614   
     56. A(C  11,N  12,H  15)          116.3048         0.040264   
     57. A(C  11,Cu 17,N  12)           39.8311         0.033476   
     58. A(N  12,Cu 17,H  14)           98.2547         0.078854   
     59. A(C  11,Cu 17,H  14)           58.9938         0.039534   
     60. D(C   2,C   1,C   0,C   5)     -0.9124         0.008815   
     61. D(C   2,C   1,C   0,H   6)    179.7647         0.009755   
     62. D(H   8,C   1,C   0,C   5)    179.3168         0.009567   
     63. D(H   8,C   1,C   0,H   6)     -0.0061         0.011883   
     64. D(C   3,C   2,C   1,C   0)     -0.1013         0.007743   
     65. D(C  11,C   2,C   1,H   8)     -0.2599         0.009658   
     66. D(C  11,C   2,C   1,C   0)    179.9688         0.008311   
     67. D(C   3,C   2,C   1,H   8)    179.6699         0.008571   
     68. D(H   9,C   3,C   2,C  11)     -1.4766         0.010796   
     69. D(H   9,C   3,C   2,C   1)    178.5959         0.009700   
     70. D(C   4,C   3,C   2,C  11)   -179.1194         0.008293   
     71. D(C   4,C   3,C   2,C   1)      0.9531         0.007634   
     72. D(C   5,C   4,C   3,H   9)   -178.4496         0.009900   
     73. D(H  10,C   4,C   3,C   2)    177.8751         0.009762   
     74. D(C   5,C   4,C   3,C   2)     -0.7899         0.008801   
     75. D(H  10,C   4,C   3,H   9)      0.2154         0.012276   
     76. D(H   7,C   5,C   4,H  10)      0.3847         0.011988   
     77. D(C   0,C   5,C   4,H  10)   -178.8870         0.009723   
     78. D(C   0,C   5,C   4,C   3)     -0.2277         0.008991   
     79. D(H   7,C   5,C   0,H   6)      1.1286         0.011910   
     80. D(H   7,C   5,C   4,C   3)    179.0440         0.009713   
     81. D(C   4,C   5,C   0,H   6)   -179.6002         0.009564   
     82. D(C   4,C   5,C   0,C   1)      1.0792         0.008868   
     83. D(H   7,C   5,C   0,C   1)   -178.1921         0.009676   
     84. D(Cu 17,C  11,C   2,C   3)     26.3845         0.015021   
     85. D(Cu 17,C  11,C   2,C   1)   -153.6875         0.014035   
     86. D(H  13,C  11,C   2,C   3)    163.8711         0.015568   
     87. D(H  13,C  11,C   2,C   1)    -16.2008         0.015197   
     88. D(N  12,C  11,C   2,C   3)    -57.2937         0.016591   
     89. D(N  12,C  11,C   2,C   1)    122.6343         0.017114   
     90. D(H  15,N  12,C  11,C   2)   -145.6187         0.037194   
     91. D(Cu 17,N  12,C  11,H  13)   -110.4718         0.027425   
     92. D(Cu 17,N  12,C  11,C   2)    110.0973         0.031160   
     93. D(H  16,N  12,C  11,Cu 17)   -115.8394         0.031034   
     94. D(H  16,N  12,C  11,H  13)    133.6889         0.034396   
     95. D(H  16,N  12,C  11,C   2)     -5.7421         0.037936   
     96. D(H  15,N  12,C  11,Cu 17)    104.2840         0.027649   
     97. D(H  15,N  12,C  11,H  13)     -6.1878         0.035408   
     98. D(H  14,Cu 17,N  12,H  16)    117.4991         0.030428   
     99. D(H  14,Cu 17,N  12,C  11)      9.3960         0.006396   
    100. D(C  11,Cu 17,N  12,H  16)    108.1031         0.040481   
    101. D(C  11,Cu 17,N  12,H  15)   -110.2338         0.041000   
    102. D(H  14,Cu 17,C  11,H  13)    -60.1780         0.023405   
    103. D(H  14,Cu 17,C  11,N  12)   -169.1348         0.008560   
    104. D(H  14,Cu 17,C  11,C   2)     77.4419         0.024636   
    105. D(H  14,Cu 17,N  12,H  15)   -100.8378         0.029609   
    106. D(N  12,Cu 17,C  11,H  13)    108.9567         0.037465   
    107. D(N  12,Cu 17,C  11,C   2)   -113.4233         0.041412   
    -----------------------------------------------------------------

Number of atoms                         .... 18
Number of degrees of freedom            .... 107

         *************************************************************
         *                GEOMETRY OPTIMIZATION CYCLE   1            *
         *************************************************************


           ************************************************************
           *        Program running with 32 parallel MPI-processes    *
           *              working on a common directory               *
           ************************************************************
------------------------------------------------------------------------------
                           ORCA GTO INTEGRAL CALCULATION
                           -- RI-GTO INTEGRALS CHOSEN --
------------------------------------------------------------------------------
------------------------------------------------------------------------------
                   ___                                                        
                  /   \      - P O W E R E D   B Y -                         
                 /     \                                                     
                 |  |  |   _    _      __       _____    __    __             
                 |  |  |  | |  | |    /  \     |  _  \  |  |  /  |          
                  \  \/   | |  | |   /    \    | | | |  |  | /  /          
                 / \  \   | |__| |  /  /\  \   | |_| |  |  |/  /          
                |  |  |   |  __  | /  /__\  \  |    /   |      \           
                |  |  |   | |  | | |   __   |  |    \   |  |\   \          
                \     /   | |  | | |  |  |  |  | |\  \  |  | \   \       
                 \___/    |_|  |_| |__|  |__|  |_| \__\ |__|  \__/        
                                                                              
                      - O R C A' S   B I G   F R I E N D -                    
                                      &                                       
                       - I N T E G R A L  F E E D E R -                       
                                                                              
 v1 FN, 2020, v2 2021                                                         
------------------------------------------------------------------------------


Reading SHARK input file orca.SHARKINP.tmp ... ok
----------------------
SHARK INTEGRAL PACKAGE
----------------------

Number of atoms                             ...     18
Number of basis functions                   ...    347
Number of shells                            ...    139
Maximum angular momentum                    ...      3
Integral batch strategy                     ... SHARK/LIBINT Hybrid
RI-J (if used) integral strategy            ... SPLIT-RIJ (Revised 2003 algorithm where possible)
Printlevel                                  ...      1
Contraction scheme used                     ... SEGMENTED contraction
Coulomb Range Separation                    ... NOT USED
Exchange Range Separation                   ... NOT USED
Finite Nucleus Model                        ... NOT USED
Auxiliary Coulomb fitting basis             ... AVAILABLE
   # of basis functions in Aux-J            ...    582
   # of shells in Aux-J                     ...    188
   Maximum angular momentum in Aux-J        ...      4
Auxiliary J/K fitting basis                 ... NOT available
Auxiliary Correlation fitting basis         ... NOT available
Auxiliary 'external' fitting basis          ... NOT available
Integral threshold                          ...     2.500000e-11
Primitive cut-off                           ...     2.500000e-12
Primitive pair pre-selection threshold      ...     2.500000e-12

Calculating pre-screening integrals         ... done (  0.2 sec) Dimension = 139
Organizing shell pair data                  ... done (  0.8 sec)
Shell pair information
Total number of shell pairs                 ...      9730
Shell pairs after pre-screening             ...      8647
Total number of primitive shell pairs       ...     31637
Primitive shell pairs kept                  ...     20318
          la=0 lb=0:   2309 shell pairs
          la=1 lb=0:   2404 shell pairs
          la=1 lb=1:    647 shell pairs
          la=2 lb=0:   1315 shell pairs
          la=2 lb=1:    687 shell pairs
          la=2 lb=2:    199 shell pairs
          la=3 lb=0:    578 shell pairs
          la=3 lb=1:    304 shell pairs
          la=3 lb=2:    164 shell pairs
          la=3 lb=3:     40 shell pairs

Calculating one electron integrals          ... done (  0.3 sec)
Calculating RI/J V-Matrix + Cholesky decomp.... done (  2.3 sec)
Calculating Nuclear repulsion               ... done (  0.0 sec) ENN=    616.164629936918 Eh

SHARK setup successfully completed in   6.1 seconds

Maximum memory used throughout the entire GTOINT-calculation: 25.6 MB


           ************************************************************
           *        Program running with 32 parallel MPI-processes    *
           *              working on a common directory               *
           ************************************************************
-------------------------------------------------------------------------------
                                 ORCA SCF
-------------------------------------------------------------------------------

------------
SCF SETTINGS
------------
Hamiltonian:
 Density Functional     Method          .... DFT(GTOs)
 Exchange Functional    Exchange        .... B88
   X-Alpha parameter    XAlpha          ....  0.666667
   Becke's b parameter  XBeta           ....  0.004200
 Correlation Functional Correlation     .... LYP
 LDA part of GGA corr.  LDAOpt          .... VWN-5
 Gradients option       PostSCFGGA      .... off
 Hybrid DFT is turned on
   Fraction HF Exchange ScalHFX         ....  0.200000
   Scaling of DF-GGA-X  ScalDFX         ....  0.720000
   Scaling of DF-GGA-C  ScalDFC         ....  0.810000
   Scaling of DF-LDA-C  ScalLDAC        ....  1.000000
   Perturbative correction              ....  0.000000
   Density functional embedding theory  .... OFF
   NL short-range parameter             ....  4.800000
 RI-approximation to the Coulomb term is turned on
   Number of AuxJ basis functions       .... 582
   RIJ-COSX (HFX calculated with COS-X)).... on


General Settings:
 Integral files         IntName         .... orca
 Hartree-Fock type      HFTyp           .... RHF
 Total Charge           Charge          ....    1
 Multiplicity           Mult            ....    1
 Number of Electrons    NEL             ....   86
 Basis Dimension        Dim             ....  347
 Nuclear Repulsion      ENuc            ....    616.1646299369 Eh

Convergence Acceleration:
 DIIS                   CNVDIIS         .... on
   Start iteration      DIISMaxIt       ....    12
   Startup error        DIISStart       ....  0.200000
   # of expansion vecs  DIISMaxEq       ....     5
   Bias factor          DIISBfac        ....   1.050
   Max. coefficient     DIISMaxC        ....  10.000
 Trust-Rad. Augm. Hess. CNVTRAH         .... auto
   Auto Start mean grad. ratio tolernc. ....  1.125000
   Auto Start start iteration           ....     1
   Auto Start num. interpolation iter.  ....    10
   Max. Number of Micro iterations      ....    16
   Max. Number of Macro iterations      .... Maxiter - #DIIS iter
   Number of Davidson start vectors     ....     2
   Converg. threshold I  (grad. norm)   ....   1.000e-05
   Converg. threshold II (energy diff.) ....   1.000e-08
   Grad. Scal. Fac. for Micro threshold ....   0.100
   Minimum threshold for Micro iter.    ....   0.010
   NR start threshold (gradient norm)   ....   0.001
   Initial trust radius                 ....   0.400
   Minimum AH scaling param. (alpha)    ....   1.000
   Maximum AH scaling param. (alpha)    .... 1000.000
   Orbital update algorithm             .... Taylor
   White noise on init. David. guess    .... on
   Maximum white noise                  ....   0.010
   Quad. conv. algorithm                .... NR
 SOSCF                  CNVSOSCF        .... off
 Level Shifting         CNVShift        .... on
   Level shift para.    LevelShift      ....    0.2500
   Turn off err/grad.   ShiftErr        ....    0.0010
 Zerner damping         CNVZerner       .... off
 Static damping         CNVDamp         .... on
   Fraction old density DampFac         ....    0.7000
   Max. Damping (<1)    DampMax         ....    0.9800
   Min. Damping (>=0)   DampMin         ....    0.0000
   Turn off err/grad.   DampErr         ....    0.1000
 Fernandez-Rico         CNVRico         .... off

SCF Procedure:
 Maximum # iterations   MaxIter         ....  2000
 SCF integral mode      SCFMode         .... Direct
   Integral package                     .... SHARK and LIBINT hybrid scheme
 Reset frequency        DirectResetFreq ....    15
 Integral Threshold     Thresh          ....  2.500e-11 Eh
 Primitive CutOff       TCut            ....  2.500e-12 Eh

Convergence Tolerance:
 Convergence Check Mode ConvCheckMode   .... Total+1el-Energy
 Convergence forced     ConvForced      .... 0
 Energy Change          TolE            ....  1.000e-08 Eh
 1-El. energy change                    ....  1.000e-05 Eh
 DIIS Error             TolErr          ....  5.000e-07


Diagonalization of the overlap matrix:
Smallest eigenvalue                        ... 8.412e-06
Time for diagonalization                   ...    0.076 sec
Threshold for overlap eigenvalues          ... 1.000e-08
Number of eigenvalues below threshold      ... 0
Time for construction of square roots      ...    0.687 sec
Total time needed                          ...    1.269 sec

---------------------
INITIAL GUESS: MOREAD
---------------------
Guess MOs are being read from file: orca.gbw
Input Geometry matches current geometry (good)
Input basis set matches current basis set (good)
MOs were renormalized
MOs were reorthogonalized (Cholesky)
                      ------------------
                      INITIAL GUESS DONE (   0.3 sec)
                      ------------------
-------------------
DFT GRID GENERATION
-------------------

General Integration Accuracy     IntAcc      ... 4.388
Radial Grid Type                 RadialGrid  ... OptM3 with GC (2021)
Angular Grid (max. ang.)         AngularGrid ... 4 (Lebedev-302)
Angular grid pruning method      GridPruning ... 4 (adaptive)
Weight generation scheme         WeightScheme... Becke
Basis function cutoff            BFCut       ... 1.0000e-11
Integration weight cutoff        WCut        ... 1.0000e-14
Angular grids for H and He will be reduced by one unit
Partially contracted basis set               ... off
Rotationally invariant grid construction     ... off

Total number of grid points                  ...    88092
Total number of batches                      ...     1386
Average number of points per batch           ...       63
Average number of grid points per atom       ...     4894
Time for grid setup =    4.267 sec

--------------------
COSX GRID GENERATION
--------------------

GRIDX 1
-------
General Integration Accuracy     IntAcc      ... 3.816
Radial Grid Type                 RadialGrid  ... OptM3 with GC (2021)
Angular Grid (max. ang.)         AngularGrid ... 1 (Lebedev-50)
Angular grid pruning method      GridPruning ... 4 (adaptive)
Weight generation scheme         WeightScheme... Becke
Basis function cutoff            BFCut       ... 1.0000e-11
Integration weight cutoff        WCut        ... 1.0000e-14
Angular grids for H and He will be reduced by one unit
Partially contracted basis set               ... on
Rotationally invariant grid construction     ... off

Total number of grid points                  ...    11010
Total number of batches                      ...      179
Average number of points per batch           ...       61
Average number of grid points per atom       ...      612
UseSFitting                                  ... on

GRIDX 2
-------
General Integration Accuracy     IntAcc      ... 4.020
Radial Grid Type                 RadialGrid  ... OptM3 with GC (2021)
Angular Grid (max. ang.)         AngularGrid ... 2 (Lebedev-110)
Angular grid pruning method      GridPruning ... 4 (adaptive)
Weight generation scheme         WeightScheme... Becke
Basis function cutoff            BFCut       ... 1.0000e-11
Integration weight cutoff        WCut        ... 1.0000e-14
Angular grids for H and He will be reduced by one unit
Partially contracted basis set               ... on
Rotationally invariant grid construction     ... off

Total number of grid points                  ...    23736
Total number of batches                      ...      380
Average number of points per batch           ...       62
Average number of grid points per atom       ...     1319
UseSFitting                                  ... on

GRIDX 3
-------
General Integration Accuracy     IntAcc      ... 4.338
Radial Grid Type                 RadialGrid  ... OptM3 with GC (2021)
Angular Grid (max. ang.)         AngularGrid ... 3 (Lebedev-194)
Angular grid pruning method      GridPruning ... 4 (adaptive)
Weight generation scheme         WeightScheme... Becke
Basis function cutoff            BFCut       ... 1.0000e-11
Integration weight cutoff        WCut        ... 1.0000e-14
Angular grids for H and He will be reduced by one unit
Partially contracted basis set               ... on
Rotationally invariant grid construction     ... off

Total number of grid points                  ...    52283
Total number of batches                      ...      825
Average number of points per batch           ...       63
Average number of grid points per atom       ...     2905
UseSFitting                                  ... on

Time for X-Grid setup             =    9.262 sec


--------------------
CPCM SOLVATION MODEL
--------------------
CPCM parameters:
  Epsilon                                         ...       6.0200
  Refrac                                          ...       1.3723
  Rsolv                                           ...       1.3000
  Surface type                                    ... GAUSSIAN VDW
  Epsilon function type                           ...         CPCM
Radii:
 Radius for C  used is    3.8550 Bohr (=   2.0400 Ang.)
 Radius for H  used is    2.4944 Bohr (=   1.3200 Ang.)
 Radius for N  used is    3.5149 Bohr (=   1.8600 Ang.)
 Radius for Cu used is    3.1747 Bohr (=   1.6800 Ang.)
Calculating surface                               ...        done! (  0.0s)
GEPOL surface points                              ...         1061
GEPOL Volume                                      ...    1080.8374
GEPOL Surface-area                                ...     615.3194
Calculating surface distance matrix               ...        done! (  0.0s)
Performing Cholesky decomposition & store         ...        done! (  6.9s)
Overall time for CPCM initialization              ...                 6.9s
--------------
SCF ITERATIONS
--------------
ITER       Energy         Delta-E        Max-DP      RMS-DP      [F,P]     Damp
               ***  Starting incremental Fock matrix formation  ***
  0  -1967.0839275324   0.000000000000 0.00008047  0.00000103  0.0000008 0.7000
                 **** Energy Check signals convergence ****

               *****************************************************
               *                     SUCCESS                       *
               *           SCF CONVERGED AFTER   1 CYCLES          *
               *****************************************************

Old exchange energy                            =    -22.289616280 Eh
New exchange energy                            =    -22.289611149 Eh
Exchange energy change after final integration =      0.000005131 Eh
Total energy after final integration           =  -1967.083922406 Eh
Final COS-X integration done in                =     3.013 sec

----------------
TOTAL SCF ENERGY
----------------

Total Energy       :        -1967.08392241 Eh          -53527.07479 eV

Components:
Nuclear Repulsion  :          616.16462994 Eh           16766.69198 eV
Electronic Energy  :        -2583.24855234 Eh          -70293.76678 eV
One Electron Energy:        -3935.92378143 Eh         -107101.93105 eV
Two Electron Energy:         1352.67522909 Eh           36808.16427 eV
Max COSX asymmetry :            0.00000122 Eh               0.00003 eV
CPCM Dielectric    :           -0.09574651 Eh              -2.60539 eV

Virial components:
Potential Energy   :        -3930.20871131 Eh         -106946.41609 eV
Kinetic Energy     :         1963.12478891 Eh           53419.34129 eV
Virial Ratio       :            2.00201675


DFT components:
N(Alpha)           :       43.000087764359 electrons
N(Beta)            :       43.000087764359 electrons
N(Total)           :       86.000175528718 electrons
E(X)               :      -88.846229672727 Eh       
E(C)               :       -3.857311327943 Eh       
E(XC)              :      -92.703541000670 Eh       
DFET-embed. en.    :        0.000000000000 Eh       
CPCM Solvation Model Properties:
Surface-charge          :           -1.03143038
Charge-correction       :            0.00421835 Eh               0.11479 eV
Free-energy (cav+disp)  :  This term is not implemented in the current solvation scheme

---------------
SCF CONVERGENCE
---------------

  Last Energy change         ...   -4.3449e-09  Tolerance :   1.0000e-08
  Last MAX-Density change    ...    2.5513e-05  Tolerance :   1.0000e-07
  Last RMS-Density change    ...    3.2349e-07  Tolerance :   5.0000e-09
  Last DIIS Error            ...    3.2165e-07  Tolerance :   5.0000e-07

             **** THE GBW FILE WAS UPDATED (orca.gbw) ****
             **** DENSITY orca.scfp WAS UPDATED ****
             **** ENERGY FILE WAS UPDATED (orca.en.tmp) ****
             **** THE GBW FILE WAS UPDATED (orca.gbw) ****
             **** DENSITY orca.scfp WAS UPDATED ****
----------------
ORBITAL ENERGIES
----------------

  NO   OCC          E(Eh)            E(eV) 
   0   2.0000    -323.072929     -8791.2613 
   1   2.0000     -38.868906     -1057.6767 
   2   2.0000     -34.073794      -927.1951 
   3   2.0000     -34.073363      -927.1833 
   4   2.0000     -34.072788      -927.1677 
   5   2.0000     -14.395232      -391.7142 
   6   2.0000     -10.305223      -280.4194 
   7   2.0000     -10.223899      -278.2064 
   8   2.0000     -10.208437      -277.7857 
   9   2.0000     -10.207577      -277.7623 
  10   2.0000     -10.202216      -277.6164 
  11   2.0000     -10.201692      -277.6022 
  12   2.0000     -10.201066      -277.5851 
  13   2.0000      -4.359044      -118.6156 
  14   2.0000      -2.857884       -77.7670 
  15   2.0000      -2.853686       -77.6527 
  16   2.0000      -2.846390       -77.4542 
  17   2.0000      -0.984192       -26.7812 
  18   2.0000      -0.891957       -24.2714 
  19   2.0000      -0.802438       -21.8354 
  20   2.0000      -0.779677       -21.2161 
  21   2.0000      -0.713134       -19.4054 
  22   2.0000      -0.642870       -17.4934 
  23   2.0000      -0.628669       -17.1069 
  24   2.0000      -0.585856       -15.9420 
  25   2.0000      -0.559241       -15.2177 
  26   2.0000      -0.524222       -14.2648 
  27   2.0000      -0.492196       -13.3933 
  28   2.0000      -0.482492       -13.1293 
  29   2.0000      -0.462218       -12.5776 
  30   2.0000      -0.451539       -12.2870 
  31   2.0000      -0.446815       -12.1585 
  32   2.0000      -0.399286       -10.8651 
  33   2.0000      -0.392503       -10.6806 
  34   2.0000      -0.380279       -10.3479 
  35   2.0000      -0.374027       -10.1778 
  36   2.0000      -0.351288        -9.5590 
  37   2.0000      -0.342202        -9.3118 
  38   2.0000      -0.339697        -9.2436 
  39   2.0000      -0.330241        -8.9863 
  40   2.0000      -0.291666        -7.9366 
  41   2.0000      -0.289093        -7.8666 
  42   2.0000      -0.268541        -7.3074 
  43   0.0000      -0.113606        -3.0914 
  44   0.0000      -0.051578        -1.4035 
  45   0.0000      -0.044125        -1.2007 
  46   0.0000      -0.036021        -0.9802 
  47   0.0000       0.010968         0.2984 
  48   0.0000       0.022665         0.6168 
  49   0.0000       0.042502         1.1565 
  50   0.0000       0.051226         1.3939 
  51   0.0000       0.071029         1.9328 
  52   0.0000       0.074165         2.0181 
  53   0.0000       0.088793         2.4162 
  54   0.0000       0.094275         2.5654 
  55   0.0000       0.104061         2.8316 
  56   0.0000       0.108802         2.9607 
  57   0.0000       0.113780         3.0961 
  58   0.0000       0.117606         3.2002 
  59   0.0000       0.136815         3.7229 
  60   0.0000       0.160467         4.3665 
  61   0.0000       0.167611         4.5609 
  62   0.0000       0.170930         4.6512 
  63   0.0000       0.179330         4.8798 
  64   0.0000       0.187875         5.1123 
  65   0.0000       0.193153         5.2559 
  66   0.0000       0.206145         5.6095 
  67   0.0000       0.210874         5.7382 
  68   0.0000       0.215830         5.8730 
  69   0.0000       0.228879         6.2281 
  70   0.0000       0.237760         6.4698 
  71   0.0000       0.240328         6.5397 
  72   0.0000       0.249549         6.7906 
  73   0.0000       0.257645         7.0109 
  74   0.0000       0.262181         7.1343 
  75   0.0000       0.281360         7.6562 
  76   0.0000       0.287056         7.8112 
  77   0.0000       0.301693         8.2095 
  78   0.0000       0.314095         8.5470 
  79   0.0000       0.319229         8.6867 
  80   0.0000       0.333381         9.0718 
  81   0.0000       0.338578         9.2132 
  82   0.0000       0.344688         9.3794 
  83   0.0000       0.355098         9.6627 
  84   0.0000       0.366894         9.9837 
  85   0.0000       0.373450        10.1621 
  86   0.0000       0.383556        10.4371 
  87   0.0000       0.395156        10.7527 
  88   0.0000       0.397932        10.8283 
  89   0.0000       0.411450        11.1961 
  90   0.0000       0.413692        11.2571 
  91   0.0000       0.427048        11.6206 
  92   0.0000       0.440590        11.9891 
  93   0.0000       0.448261        12.1978 
  94   0.0000       0.450506        12.2589 
  95   0.0000       0.465683        12.6719 
  96   0.0000       0.471605        12.8330 
  97   0.0000       0.480900        13.0859 
  98   0.0000       0.488286        13.2869 
  99   0.0000       0.493835        13.4379 
 100   0.0000       0.501883        13.6569 
 101   0.0000       0.509545        13.8654 
 102   0.0000       0.528807        14.3896 
 103   0.0000       0.553653        15.0657 
 104   0.0000       0.573845        15.6151 
 105   0.0000       0.595477        16.2038 
 106   0.0000       0.608620        16.5614 
 107   0.0000       0.628026        17.0895 
 108   0.0000       0.635571        17.2948 
 109   0.0000       0.653006        17.7692 
 110   0.0000       0.659021        17.9329 
 111   0.0000       0.678280        18.4569 
 112   0.0000       0.693034        18.8584 
 113   0.0000       0.706129        19.2148 
 114   0.0000       0.722463        19.6592 
 115   0.0000       0.740590        20.1525 
 116   0.0000       0.764407        20.8006 
 117   0.0000       0.785388        21.3715 
 118   0.0000       0.800655        21.7869 
 119   0.0000       0.803748        21.8711 
 120   0.0000       0.841435        22.8966 
 121   0.0000       0.858568        23.3628 
 122   0.0000       0.861678        23.4475 
 123   0.0000       0.880703        23.9651 
 124   0.0000       0.893670        24.3180 
 125   0.0000       0.899756        24.4836 
 126   0.0000       0.912982        24.8435 
 127   0.0000       0.947738        25.7893 
 128   0.0000       0.976376        26.5685 
 129   0.0000       0.983959        26.7749 
 130   0.0000       0.997241        27.1363 
 131   0.0000       1.009450        27.4685 
 132   0.0000       1.035565        28.1792 
 133   0.0000       1.038132        28.2490 
 134   0.0000       1.068186        29.0668 
 135   0.0000       1.080645        29.4058 
 136   0.0000       1.110054        30.2061 
 137   0.0000       1.140754        31.0415 
 138   0.0000       1.158278        31.5184 
 139   0.0000       1.167225        31.7618 
 140   0.0000       1.179095        32.0848 
 141   0.0000       1.183847        32.2141 
 142   0.0000       1.203579        32.7510 
 143   0.0000       1.213893        33.0317 
 144   0.0000       1.219449        33.1829 
 145   0.0000       1.249403        33.9980 
 146   0.0000       1.256883        34.2015 
 147   0.0000       1.274467        34.6800 
 148   0.0000       1.297274        35.3006 
 149   0.0000       1.331813        36.2405 
 150   0.0000       1.350183        36.7403 
 151   0.0000       1.354369        36.8543 
 152   0.0000       1.399490        38.0821 
 153   0.0000       1.416909        38.5561 
 154   0.0000       1.441081        39.2138 
 155   0.0000       1.444644        39.3108 
 156   0.0000       1.454294        39.5734 
 157   0.0000       1.467618        39.9359 
 158   0.0000       1.468352        39.9559 
 159   0.0000       1.491815        40.5944 
 160   0.0000       1.510135        41.0929 
 161   0.0000       1.524605        41.4866 
 162   0.0000       1.543636        42.0045 
 163   0.0000       1.572498        42.7899 
 164   0.0000       1.589495        43.2523 
 165   0.0000       1.595753        43.4227 
 166   0.0000       1.618468        44.0408 
 167   0.0000       1.639929        44.6247 
 168   0.0000       1.651312        44.9345 
 169   0.0000       1.655096        45.0374 
 170   0.0000       1.676392        45.6169 
 171   0.0000       1.683228        45.8030 
 172   0.0000       1.691535        46.0290 
 173   0.0000       1.717629        46.7391 
 174   0.0000       1.738381        47.3038 
 175   0.0000       1.755467        47.7687 
 176   0.0000       1.775012        48.3005 
 177   0.0000       1.822148        49.5832 
 178   0.0000       1.835587        49.9489 
 179   0.0000       1.859100        50.5887 
 180   0.0000       1.882216        51.2177 
 181   0.0000       1.910338        51.9829 
 182   0.0000       1.932051        52.5738 
 183   0.0000       1.946493        52.9668 
 184   0.0000       1.958881        53.3039 
 185   0.0000       1.965196        53.4757 
 186   0.0000       2.001162        54.4544 
 187   0.0000       2.034619        55.3648 
 188   0.0000       2.054135        55.8959 
 189   0.0000       2.067855        56.2692 
 190   0.0000       2.101092        57.1736 
 191   0.0000       2.117671        57.6248 
 192   0.0000       2.135212        58.1021 
 193   0.0000       2.147049        58.4242 
 194   0.0000       2.178804        59.2883 
 195   0.0000       2.192082        59.6496 
 196   0.0000       2.220825        60.4317 
 197   0.0000       2.233736        60.7830 
 198   0.0000       2.253770        61.3282 
 199   0.0000       2.289042        62.2880 
 200   0.0000       2.310394        62.8690 
 201   0.0000       2.326091        63.2962 
 202   0.0000       2.374774        64.6209 
 203   0.0000       2.395870        65.1949 
 204   0.0000       2.404784        65.4375 
 205   0.0000       2.448718        66.6330 
 206   0.0000       2.454658        66.7946 
 207   0.0000       2.480959        67.5103 
 208   0.0000       2.491736        67.8036 
 209   0.0000       2.512147        68.3590 
 210   0.0000       2.534667        68.9718 
 211   0.0000       2.555251        69.5319 
 212   0.0000       2.558413        69.6180 
 213   0.0000       2.587319        70.4045 
 214   0.0000       2.600497        70.7631 
 215   0.0000       2.606108        70.9158 
 216   0.0000       2.627597        71.5006 
 217   0.0000       2.634180        71.6797 
 218   0.0000       2.647297        72.0366 
 219   0.0000       2.658796        72.3495 
 220   0.0000       2.676546        72.8325 
 221   0.0000       2.686766        73.1106 
 222   0.0000       2.702395        73.5359 
 223   0.0000       2.725772        74.1720 
 224   0.0000       2.740547        74.5741 
 225   0.0000       2.748714        74.7963 
 226   0.0000       2.756784        75.0159 
 227   0.0000       2.778305        75.6015 
 228   0.0000       2.795002        76.0559 
 229   0.0000       2.805250        76.3347 
 230   0.0000       2.816116        76.6304 
 231   0.0000       2.831788        77.0569 
 232   0.0000       2.850841        77.5753 
 233   0.0000       2.877478        78.3002 
 234   0.0000       2.892254        78.7022 
 235   0.0000       2.921535        79.4990 
 236   0.0000       2.940350        80.0110 
 237   0.0000       2.946863        80.1882 
 238   0.0000       2.998233        81.5861 
 239   0.0000       3.004728        81.7628 
 240   0.0000       3.028469        82.4088 
 241   0.0000       3.040930        82.7479 
 242   0.0000       3.081803        83.8601 
 243   0.0000       3.098293        84.3088 
 244   0.0000       3.109033        84.6011 
 245   0.0000       3.114853        84.7595 
 246   0.0000       3.126109        85.0658 
 247   0.0000       3.134911        85.3053 
 248   0.0000       3.153697        85.8164 
 249   0.0000       3.166602        86.1676 
 250   0.0000       3.185498        86.6818 
 251   0.0000       3.195612        86.9570 
 252   0.0000       3.198926        87.0472 
 253   0.0000       3.247018        88.3558 
 254   0.0000       3.258285        88.6624 
 255   0.0000       3.271390        89.0191 
 256   0.0000       3.304893        89.9307 
 257   0.0000       3.316349        90.2425 
 258   0.0000       3.326953        90.5310 
 259   0.0000       3.333066        90.6973 
 260   0.0000       3.350566        91.1735 
 261   0.0000       3.355447        91.3064 
 262   0.0000       3.373133        91.7876 
 263   0.0000       3.383510        92.0700 
 264   0.0000       3.391468        92.2865 
 265   0.0000       3.438060        93.5544 
 266   0.0000       3.444310        93.7244 
 267   0.0000       3.455819        94.0376 
 268   0.0000       3.475830        94.5822 
 269   0.0000       3.506819        95.4254 
 270   0.0000       3.526514        95.9613 
 271   0.0000       3.529001        96.0290 
 272   0.0000       3.560542        96.8873 
 273   0.0000       3.594236        97.8041 
 274   0.0000       3.641252        99.0835 
 275   0.0000       3.647815        99.2621 
 276   0.0000       3.657996        99.5391 
 277   0.0000       3.689642       100.4003 
 278   0.0000       3.700646       100.6997 
 279   0.0000       3.717143       101.1486 
 280   0.0000       3.737058       101.6905 
 281   0.0000       3.755064       102.1805 
 282   0.0000       3.768695       102.5514 
 283   0.0000       3.782966       102.9397 
 284   0.0000       3.842422       104.5576 
 285   0.0000       3.869098       105.2835 
 286   0.0000       3.886140       105.7472 
 287   0.0000       3.915471       106.5454 
 288   0.0000       3.947454       107.4157 
 289   0.0000       3.997141       108.7677 
 290   0.0000       4.023946       109.4971 
 291   0.0000       4.072938       110.8303 
 292   0.0000       4.104208       111.6812 
 293   0.0000       4.117649       112.0469 
 294   0.0000       4.137850       112.5966 
 295   0.0000       4.167001       113.3898 
 296   0.0000       4.184563       113.8677 
 297   0.0000       4.193904       114.1219 
 298   0.0000       4.213756       114.6621 
 299   0.0000       4.228124       115.0531 
 300   0.0000       4.256010       115.8119 
 301   0.0000       4.288923       116.7075 
 302   0.0000       4.320490       117.5665 
 303   0.0000       4.338187       118.0481 
 304   0.0000       4.377530       119.1186 
 305   0.0000       4.439617       120.8081 
 306   0.0000       4.479462       121.8924 
 307   0.0000       4.543952       123.6472 
 308   0.0000       4.625365       125.8626 
 309   0.0000       4.630828       126.0112 
 310   0.0000       4.659689       126.7966 
 311   0.0000       4.682002       127.4038 
 312   0.0000       4.691471       127.6614 
 313   0.0000       4.736763       128.8939 
 314   0.0000       4.812716       130.9607 
 315   0.0000       4.846568       131.8818 
 316   0.0000       4.864579       132.3719 
 317   0.0000       4.899997       133.3357 
 318   0.0000       4.965362       135.1144 
 319   0.0000       5.052343       137.4812 
 320   0.0000       5.067936       137.9056 
 321   0.0000       5.131152       139.6257 
 322   0.0000       5.161514       140.4519 
 323   0.0000       5.188664       141.1907 
 324   0.0000       5.213661       141.8709 
 325   0.0000       5.235000       142.4516 
 326   0.0000       5.314227       144.6075 
 327   0.0000       5.372995       146.2066 
 328   0.0000       5.408631       147.1763 
 329   0.0000       5.429304       147.7389 
 330   0.0000       5.633712       153.3011 
 331   0.0000       5.721460       155.6889 
 332   0.0000       5.731132       155.9520 
 333   0.0000       5.743167       156.2795 
 334   0.0000       5.773031       157.0922 
 335   0.0000       5.782483       157.3494 
 336   0.0000       5.818635       158.3331 
 337   0.0000       5.865220       159.6008 
 338   0.0000       5.939854       161.6317 
 339   0.0000      21.966141       597.7291 
 340   0.0000      22.464502       611.2902 
 341   0.0000      22.564586       614.0136 
 342   0.0000      22.577628       614.3685 
 343   0.0000      22.683090       617.2382 
 344   0.0000      22.770858       619.6266 
 345   0.0000      23.167611       630.4228 
 346   0.0000      31.882383       867.5637 
-------
TIMINGS
-------

Total SCF time: 0 days 0 hours 1 min 26 sec 

Total time                  ....      86.007 sec
Sum of individual times     ....      56.590 sec  ( 65.8%)

Fock matrix formation       ....      26.758 sec  ( 31.1%)
  Split-RI-J                ....      12.116 sec  ( 45.3% of F)
  Chain of spheres X        ....       6.085 sec  ( 22.7% of F)
  XC integration            ....       1.720 sec  (  6.4% of F)
    Basis function eval.    ....       0.067 sec  (  3.9% of XC)
    Density eval.           ....       0.062 sec  (  3.6% of XC)
    XC-Functional eval.     ....       0.007 sec  (  0.4% of XC)
    XC-Potential eval.      ....       0.058 sec  (  3.4% of XC)
Diagonalization             ....       7.920 sec  (  9.2%)
Density matrix formation    ....       0.557 sec  (  0.6%)
[...]
      9      -0.023794  -0.000388  -0.194953  -0.002050   0.040807   0.011156
     10      -0.116904  -0.007066  -0.234363  -0.003816   0.001537   0.000987
     11       0.155200   0.009654   0.058299   0.002687   0.064622   0.016770
     12      -0.095600  -0.011653   0.200756   0.001791   0.004540  -0.000678
     13       0.013096  -0.001384   0.163261   0.001609   0.019191  -0.000642
     14      -0.188185  -0.017944   0.071291   0.000689  -0.024486  -0.000061
     15       0.073005   0.008553  -0.092844  -0.000372  -0.010255   0.011624
     16      -0.106469  -0.004131  -0.098505   0.000227  -0.009810   0.010862
     17       0.310058   0.022434   0.007082  -0.000888  -0.001181   0.001807
     18      -0.162498  -0.002102  -0.124210  -0.000352  -0.068309   0.228526
     19      -0.124962   0.006901  -0.234407  -0.002054  -0.006267   0.020169
     20      -0.077513  -0.015667   0.183717  -0.000011  -0.108462   0.363974
     21      -0.085789  -0.003361  -0.113524  -0.000261   0.123004  -0.136706
     22       0.159685   0.017949  -0.093121   0.000133   0.116762  -0.129940
     23      -0.424622  -0.037254  -0.042695  -0.000302   0.015632  -0.017475
     24      -0.224567  -0.023612   0.265264   0.001275  -0.025792   0.160563
     25      -0.189195  -0.013974   0.111789   0.003569  -0.087197   0.532239
     26      -0.070317  -0.017128   0.269835   0.003734   0.105321  -0.636017
     27       0.205619   0.030580   0.198924   0.003354  -0.477176  -0.126676
     28       0.218600   0.051808   0.353630   0.001654  -0.025809  -0.007597
     29       0.005510  -0.007804  -0.220530  -0.000166  -0.744406  -0.196662
     30       0.175496   0.022021  -0.198956   0.000656  -0.068666   0.001213
     31       0.180765   0.018554  -0.064400   0.000807  -0.240556   0.002511
     32      -0.003615   0.004273  -0.234856  -0.000228   0.287215  -0.002180
     33       0.014129  -0.014588  -0.011638   0.011675   0.000194   0.000039
     34      -0.001686   0.000291  -0.023803   0.000152  -0.001012   0.003307
     35       0.041476  -0.007338  -0.000472   0.006906   0.001591  -0.003569
     36       0.004488  -0.002249  -0.003528  -0.003767   0.000018   0.000023
     37      -0.011090   0.042540   0.007641   0.004127   0.000238   0.000102
     38      -0.026366   0.074364   0.002811   0.007634  -0.000169   0.000048
     39      -0.147375   0.015826  -0.011948   0.008311  -0.001366   0.001144
     40      -0.132416   0.010984   0.016492  -0.047774   0.009975  -0.037480
     41      -0.077096   0.001879   0.036406  -0.027025  -0.012603   0.043738
     42       0.022492  -0.005564  -0.024203  -0.384476  -0.000762   0.000789
     43       0.008905  -0.011707   0.009257  -0.230670   0.000025  -0.000368
     44       0.042840  -0.034453   0.039872  -0.890019  -0.000333   0.000659
     45      -0.060993   0.227747   0.032817  -0.027414   0.000311   0.000367
     46      -0.003505   0.017963   0.001084   0.010608   0.000522   0.001088
     47       0.210153  -0.663240  -0.044102   0.021290  -0.001413  -0.000246
     48       0.018057  -0.062876  -0.004476  -0.022868  -0.000935  -0.000038
     49       0.169571  -0.630613  -0.085098   0.033408  -0.002813  -0.000559
     50       0.070207  -0.295722  -0.048296   0.014790  -0.001558  -0.001057
     51      -0.000295   0.000259  -0.000703   0.005104  -0.000020  -0.000003
     52      -0.000114   0.000202  -0.000073   0.002841  -0.000005  -0.000004
     53      -0.000517   0.000591  -0.000531   0.011658   0.000011  -0.000005
                 48         49         50         51         52         53    
      0       0.014755  -0.031307  -0.000558  -0.024885   0.000043   0.000022
      1       0.003336  -0.003799  -0.000291  -0.001280   0.000051   0.000027
      2       0.020000  -0.048047  -0.000671  -0.041222  -0.000053  -0.000023
      3      -0.006662   0.006002   0.001213   0.004446  -0.000087  -0.000085
      4      -0.021628   0.016007   0.004236   0.011246   0.000004  -0.000033
      5       0.025665  -0.017112  -0.005381  -0.011604  -0.000132  -0.000004
      6      -0.001155   0.000573  -0.000990   0.000640   0.000223  -0.000088
      7      -0.001049  -0.000502  -0.000912   0.000604   0.000503   0.000018
      8      -0.000256   0.001877   0.000099   0.000127   0.000382  -0.000202
      9      -0.013736  -0.012262  -0.001241   0.008500  -0.000062  -0.000021
     10      -0.001002  -0.002108  -0.000667   0.001706  -0.000146  -0.000141
     11      -0.020997  -0.016782  -0.000898   0.011270   0.000189   0.000188
     12       0.007750   0.011412   0.001143  -0.007407   0.000024  -0.000015
     13       0.021599   0.037354   0.004353  -0.028727   0.000004   0.000032
     14      -0.023052  -0.043321  -0.005325   0.035718  -0.000038  -0.000048
     15      -0.045331   0.002351   0.003803  -0.040751  -0.000000   0.000003
     16      -0.043213   0.000234   0.003374  -0.038809  -0.000014  -0.000002
     17      -0.005590   0.003730   0.000877  -0.005053   0.000032   0.000037
     18      -0.156184   0.348560   0.006660   0.282817   0.000242  -0.000003
     19      -0.016767   0.033638   0.001237   0.025122   0.000028  -0.000110
     20      -0.243381   0.549925   0.009689   0.449913   0.000220  -0.000145
     21       0.528035  -0.019078  -0.041940   0.449777   0.000030  -0.000051
     22       0.502471  -0.015797  -0.039551   0.427840   0.000063  -0.000106
     23       0.066724  -0.006582  -0.005506   0.056952  -0.000056  -0.000089
     24       0.073886  -0.052125  -0.014831  -0.035499  -0.000255   0.000014
     25       0.243771  -0.167456  -0.050378  -0.112920  -0.000175   0.000092
     26      -0.290961   0.197303   0.062765   0.132773   0.000235  -0.000131
     27       0.152121   0.123882   0.008243  -0.081895   0.000395   0.000131
     28       0.008623   0.008745   0.000508  -0.006177   0.002190   0.001637
     29       0.236594   0.190136   0.012320  -0.125097   0.000625  -0.000079
     30      -0.071298  -0.122326  -0.014140   0.092631   0.000028  -0.000029
     31      -0.240129  -0.419713  -0.049025   0.323938   0.000138  -0.000049
     32       0.281847   0.496535   0.058552  -0.386284  -0.000041   0.000128
     33      -0.000121  -0.000167   0.001564   0.000307   0.001307  -0.000289
     34       0.002564  -0.005020   0.057757   0.003433  -0.000627   0.000344
     35      -0.003026   0.005377  -0.063804  -0.003699   0.000098  -0.000881
     36       0.000007   0.000042  -0.000857  -0.000097   0.016778   0.031513
     37      -0.000076   0.000024  -0.001271  -0.000054  -0.030988   0.069207
     38       0.000107  -0.000122   0.002101   0.000107  -0.041265  -0.038769
     39       0.001162   0.000163  -0.001789  -0.000902   0.000255   0.002243
     40      -0.028840   0.058183  -0.662046  -0.039637   0.002466  -0.009715
     41       0.033575  -0.064613   0.733048   0.043073   0.004861   0.012643
     42       0.001242  -0.000447   0.002266  -0.000745  -0.003689   0.000872
     43      -0.000144   0.000557  -0.005889  -0.000296   0.004945   0.001172
     44       0.000522  -0.000845   0.008343   0.000534   0.005537  -0.000214
     45       0.000129  -0.000198   0.000192  -0.000148   0.097485  -0.082579
     46       0.000496  -0.001235   0.009514   0.000235   0.698915  -0.699610
     47       0.000458   0.000441  -0.003397  -0.000475   0.006086  -0.014073
     48       0.000429  -0.000356   0.008046   0.000481  -0.344513  -0.353079
     49       0.000936  -0.000004   0.006707   0.000328  -0.274010  -0.258394
     50       0.000120   0.000680  -0.004834  -0.000289   0.552409   0.551855
     51       0.000010   0.000002   0.000007  -0.000006  -0.000006   0.000004
     52       0.000001   0.000005  -0.000030  -0.000002  -0.000020   0.000007
     53      -0.000008   0.000006  -0.000084  -0.000004  -0.000034  -0.000001


-----------
IR SPECTRUM
-----------

 Mode   freq       eps      Int      T**2         TX        TY        TZ
       cm**-1   L/(mol*cm) km/mol    a.u.
----------------------------------------------------------------------------
  7:     47.61   0.000437    2.21  0.002867  (-0.029749  0.039955 -0.019637)
  8:     76.09   0.000385    1.95  0.001579  ( 0.002392 -0.039590  0.002322)
  9:    168.45   0.001681    8.49  0.003114  (-0.030077 -0.045607  0.011357)
 10:    234.11   0.003372   17.04  0.004495  ( 0.053317  0.005633 -0.040261)
 11:    259.12   0.000304    1.54  0.000366  (-0.002594 -0.002416  0.018798)
 12:    362.19   0.009977   50.42  0.008596  ( 0.071778  0.008200 -0.058111)
 13:    409.64   0.000666    3.37  0.000507  ( 0.020483  0.008902 -0.002932)
 14:    420.52   0.015834   80.02  0.011750  (-0.096498 -0.034177  0.035638)
 15:    486.33   0.007311   36.95  0.004691  ( 0.066825 -0.003186 -0.014682)
 16:    526.40   0.009995   50.51  0.005925  ( 0.054448  0.024708 -0.048479)
 17:    582.11   0.005964   30.14  0.003197  (-0.027028  0.042885  0.025053)
 18:    631.23   0.021759  109.96  0.010757  (-0.066315 -0.057825 -0.054916)
 19:    634.17   0.012279   62.05  0.006042  ( 0.052503  0.035297  0.045165)
 20:    693.04   0.045759  231.25  0.020605  ( 0.130859 -0.011146  0.057935)
 21:    709.49   0.026798  135.42  0.011787  (-0.082572  0.068314  0.017367)
 22:    791.79   0.001834    9.27  0.000723  ( 0.004439 -0.014632 -0.022113)
 23:    809.21   0.004179   21.12  0.001612  (-0.038375  0.000460  0.011777)
 24:    855.72   0.000034    0.17  0.000012  (-0.001916 -0.002434 -0.001654)
 25:    945.71   0.000358    1.81  0.000118  (-0.007809  0.004405  0.006145)
 26:    988.73   0.000048    0.24  0.000015  ( 0.001963  0.000733  0.003262)
 27:   1016.29   0.000027    0.14  0.000008  (-0.001821 -0.001776 -0.001385)
 28:   1021.92   0.000355    1.80  0.000108  ( 0.010078  0.002387  0.001106)
 29:   1049.19   0.001770    8.94  0.000526  ( 0.006928  0.019820  0.009251)
 30:   1094.30   0.006831   34.52  0.001948  (-0.011341  0.039139  0.016960)
 31:   1105.10   0.007069   35.73  0.001996  ( 0.009665 -0.014431 -0.041166)
 32:   1141.27   0.005299   26.78  0.001449  (-0.035032  0.013699  0.005841)
 33:   1180.87   0.002865   14.48  0.000757  (-0.014803  0.009126  0.021321)
 34:   1183.04   0.000262    1.32  0.000069  (-0.007306  0.002007  0.003418)
 35:   1207.35   0.000925    4.68  0.000239  (-0.009128 -0.010807 -0.006252)
 36:   1244.72   0.017509   88.48  0.004390  (-0.033323 -0.047220 -0.032396)
 37:   1337.36   0.002191   11.07  0.000511  (-0.017253 -0.011126 -0.009475)
 38:   1368.12   0.001177    5.95  0.000269  (-0.005336 -0.015045  0.003698)
 39:   1433.81   0.011774   59.50  0.002563  ( 0.030548  0.038301  0.012743)
 40:   1492.75   0.004167   21.06  0.000871  (-0.013851  0.002332 -0.025957)
 41:   1533.91   0.000292    1.48  0.000059  ( 0.004051  0.003958 -0.005234)
 42:   1623.25   0.000549    2.77  0.000106  ( 0.005202  0.008082  0.003631)
 43:   1623.87   0.018294   92.45  0.003516  (-0.002181 -0.029905 -0.051152)
 44:   1639.49   0.003186   16.10  0.000607  (-0.016687 -0.016504 -0.007461)
 45:   1778.53   0.007836   39.60  0.001375  ( 0.004794  0.025983  0.026017)
 46:   3170.78   0.001123    5.67  0.000110  ( 0.007303  0.005404  0.005286)
 47:   3174.84   0.000313    1.58  0.000031  (-0.000969 -0.003821  0.003899)
 48:   3183.76   0.000519    2.63  0.000051  (-0.003857 -0.005843 -0.001381)
 49:   3193.34   0.002731   13.80  0.000267  (-0.003711  0.005732 -0.014842)
 50:   3197.01   0.000345    1.74  0.000034  ( 0.004439 -0.003605 -0.001002)
 51:   3201.73   0.001785    9.02  0.000174  (-0.010428 -0.008024 -0.000926)
 52:   3528.21   0.025090  126.79  0.002219  (-0.015783  0.030695  0.032061)
 53:   3627.76   0.022426  113.33  0.001929  (-0.015536 -0.037545  0.016677)

* The epsilon (eps) is given for a Dirac delta lineshape.
** The dipole moment derivative (T) already includes vibrational overlap.

The first frequency considered to be a vibration is 7
The total number of vibrations considered is 47


--------------------------
THERMOCHEMISTRY AT 298.15K
--------------------------

Temperature         ... 298.15 K
Pressure            ... 1.00 atm
Total Mass          ... 170.71 AMU

Throughout the following assumptions are being made:
  (1) The electronic state is orbitally nondegenerate
  (2) There are no thermally accessible electronically excited states
  (3) Hindered rotations indicated by low frequency modes are not
      treated as such but are treated as vibrations and this may
      cause some error
  (4) All equations used are the standard statistical mechanics
      equations for an ideal gas
  (5) All vibrations are strictly harmonic

freq.      47.61  E(vib)   ...       0.53 
freq.      76.09  E(vib)   ...       0.49 
freq.     168.45  E(vib)   ...       0.38 
freq.     234.11  E(vib)   ...       0.32 
freq.     259.12  E(vib)   ...       0.30 
freq.     362.19  E(vib)   ...       0.22 
freq.     409.64  E(vib)   ...       0.19 
freq.     420.52  E(vib)   ...       0.18 
freq.     486.33  E(vib)   ...       0.15 
freq.     526.40  E(vib)   ...       0.13 
freq.     582.11  E(vib)   ...       0.11 
freq.     631.23  E(vib)   ...       0.09 
freq.     634.17  E(vib)   ...       0.09 
freq.     693.04  E(vib)   ...       0.07 
freq.     709.49  E(vib)   ...       0.07 
freq.     791.79  E(vib)   ...       0.05 
freq.     809.21  E(vib)   ...       0.05 
freq.     855.72  E(vib)   ...       0.04 
freq.     945.71  E(vib)   ...       0.03 
freq.     988.73  E(vib)   ...       0.02 
freq.    1016.29  E(vib)   ...       0.02 
freq.    1021.92  E(vib)   ...       0.02 
freq.    1049.19  E(vib)   ...       0.02 
freq.    1094.30  E(vib)   ...       0.02 
freq.    1105.10  E(vib)   ...       0.02 
freq.    1141.27  E(vib)   ...       0.01 
freq.    1180.87  E(vib)   ...       0.01 
freq.    1183.04  E(vib)   ...       0.01 
freq.    1207.35  E(vib)   ...       0.01 
freq.    1244.72  E(vib)   ...       0.01 
freq.    1337.36  E(vib)   ...       0.01 
freq.    1368.12  E(vib)   ...       0.01 
freq.    1433.81  E(vib)   ...       0.00 
freq.    1492.75  E(vib)   ...       0.00 
freq.    1533.91  E(vib)   ...       0.00 
freq.    1623.25  E(vib)   ...       0.00 
freq.    1623.87  E(vib)   ...       0.00 
freq.    1639.49  E(vib)   ...       0.00 
freq.    1778.53  E(vib)   ...       0.00 
freq.    3170.78  E(vib)   ...       0.00 
freq.    3174.84  E(vib)   ...       0.00 
freq.    3183.76  E(vib)   ...       0.00 
freq.    3193.34  E(vib)   ...       0.00 
freq.    3197.01  E(vib)   ...       0.00 
freq.    3201.73  E(vib)   ...       0.00 
freq.    3528.21  E(vib)   ...       0.00 
freq.    3627.76  E(vib)   ...       0.00 

------------
INNER ENERGY
------------

The inner energy is: U= E(el) + E(ZPE) + E(vib) + E(rot) + E(trans)
    E(el)   - is the total energy from the electronic structure calculation
              = E(kin-el) + E(nuc-el) + E(el-el) + E(nuc-nuc)
    E(ZPE)  - the the zero temperature vibrational energy from the frequency calculation
    E(vib)  - the the finite temperature correction to E(ZPE) due to population
              of excited vibrational states
    E(rot)  - is the rotational thermal energy
    E(trans)- is the translational thermal energy

Summary of contributions to the inner energy U:
Electronic energy                ...  -1967.12202583 Eh
Zero point energy                ...      0.14121043 Eh      88.61 kcal/mol
Thermal vibrational correction   ...      0.00585887 Eh       3.68 kcal/mol
Thermal rotational correction    ...      0.00141627 Eh       0.89 kcal/mol
Thermal translational correction ...      0.00141627 Eh       0.89 kcal/mol
-----------------------------------------------------------------------
Total thermal energy                  -1966.97212399 Eh


Summary of corrections to the electronic energy:
(perhaps to be used in another calculation)
Total thermal correction                  0.00869141 Eh       5.45 kcal/mol
Non-thermal (ZPE) correction              0.14121043 Eh      88.61 kcal/mol
-----------------------------------------------------------------------
Total correction                          0.14990185 Eh      94.06 kcal/mol


--------
ENTHALPY
--------

The enthalpy is H = U + kB*T
                kB is Boltzmann's constant
Total free energy                 ...  -1966.97212399 Eh 
Thermal Enthalpy correction       ...      0.00094421 Eh       0.59 kcal/mol
-----------------------------------------------------------------------
Total Enthalpy                    ...  -1966.97117978 Eh


Note: Only C1 symmetry has been detected, increase convergence thresholds 
      if your molecule has a higher symmetry. Symmetry factor of 1.0 is   
      used for the rotational entropy correction. 
 

Note: Rotational entropy computed according to Herzberg 
Infrared and Raman Spectra, Chapter V,1, Van Nostrand Reinhold, 1945 
Point Group:  C1, Symmetry Number:   1  
Rotational constants in cm-1:     0.103236     0.020520     0.019658 

Vibrational entropy computed according to the QRRHO of S. Grimme
Chem.Eur.J. 2012 18 9955


-------
ENTROPY
-------

The entropy contributions are T*S = T*(S(el)+S(vib)+S(rot)+S(trans))
     S(el)   - electronic entropy
     S(vib)  - vibrational entropy
     S(rot)  - rotational entropy
     S(trans)- translational entropy
The entropies will be listed as multiplied by the temperature to get
units of energy

Electronic entropy                ...      0.00000000 Eh      0.00 kcal/mol
Vibrational entropy               ...      0.00977449 Eh      6.13 kcal/mol
Rotational entropy                ...      0.01427250 Eh      8.96 kcal/mol
Translational entropy             ...      0.01962863 Eh     12.32 kcal/mol
-----------------------------------------------------------------------
Final entropy term                ...      0.04367562 Eh     27.41 kcal/mol

In case the symmetry of your molecule has not been determined correctly
or in case you have a reason to use a different symmetry number we print 
out the resulting rotational entropy values for sn=1,12 :
 --------------------------------------------------------
|  sn= 1 | S(rot)=       0.01427250 Eh      8.96 kcal/mol|
|  sn= 2 | S(rot)=       0.01361804 Eh      8.55 kcal/mol|
|  sn= 3 | S(rot)=       0.01323521 Eh      8.31 kcal/mol|
|  sn= 4 | S(rot)=       0.01296358 Eh      8.13 kcal/mol|
|  sn= 5 | S(rot)=       0.01275290 Eh      8.00 kcal/mol|
|  sn= 6 | S(rot)=       0.01258075 Eh      7.89 kcal/mol|
|  sn= 7 | S(rot)=       0.01243521 Eh      7.80 kcal/mol|
|  sn= 8 | S(rot)=       0.01230913 Eh      7.72 kcal/mol|
|  sn= 9 | S(rot)=       0.01219792 Eh      7.65 kcal/mol|
|  sn=10 | S(rot)=       0.01209844 Eh      7.59 kcal/mol|
|  sn=11 | S(rot)=       0.01200845 Eh      7.54 kcal/mol|
|  sn=12 | S(rot)=       0.01192630 Eh      7.48 kcal/mol|
 --------------------------------------------------------


-------------------
GIBBS FREE ENERGY
-------------------

The Gibbs free energy is G = H - T*S

Total enthalpy                    ...  -1966.97117978 Eh 
Total entropy correction          ...     -0.04367562 Eh    -27.41 kcal/mol
-----------------------------------------------------------------------
Final Gibbs free energy         ...  -1967.01485539 Eh

For completeness - the Gibbs free energy minus the electronic energy
G-E(el)                           ...      0.10717044 Eh     67.25 kcal/mol


Timings for individual modules:

Sum of individual times         ...    77849.951 sec (=1297.499 min)
GTO integral calculation        ...      443.598 sec (=   7.393 min)   0.6 %
SCF iterations                  ...    10154.155 sec (= 169.236 min)  13.0 %
SCF Gradient evaluation         ...      730.990 sec (=  12.183 min)   0.9 %
Geometry relaxation             ...        2.302 sec (=   0.038 min)   0.0 %
Analytical frequency calculation...     1164.873 sec (=  19.415 min)   1.5 %
NEB Iterations                  ...    65354.033 sec (=1089.234 min)  83.9 %
                             ****ORCA TERMINATED NORMALLY****
TOTAL RUN TIME: 0 days 21 hours 26 minutes 40 seconds 611 msec
