18
Properties=species:S:1:pos:R:3 energy=-1967.067812059418 pbc="F F F"
C       -2.98862000       1.81932900       1.60538700
C       -1.90013800       2.66633400       1.50438200
C       -0.72772700       2.40010600       2.23560500
C       -0.66711600       1.26630600       3.06794200
C       -1.76002400       0.42926300       3.16397200
C       -2.91924700       0.70185200       2.43298100
H       -3.88916000       2.02565200       1.04331400
H       -3.76975600       0.03733100       2.51229100
H       -1.93978200       3.53689800       0.86230800
H        0.22540600       1.03627900       3.63467200
H       -1.71758800      -0.44059700       3.80521800
C        0.35225600       3.32766700       2.08302600
N        1.52870800       3.28738400       2.74892900
H        1.67948700       2.61613100       3.49472800
H        2.06501300       4.14510100       2.83306700
H        0.16964500       4.24086200       1.52890600
H        0.94386500       3.52571100       0.85934800
Cu       3.11142900       2.75461100       1.32896800
18
Properties=species:S:1:pos:R:3 energy=-1967.100553291316 pbc="F F F"
C       -2.98862000       1.81932900       1.60538700
C       -1.90013800       2.66633400       1.50438200
C       -0.72772700       2.40010600       2.23560500
C       -0.66711600       1.26630600       3.06794200
C       -1.76002400       0.42926300       3.16397200
C       -2.91924700       0.70185200       2.43298100
H       -3.88997500       2.02556600       1.04334900
H       -3.77000800       0.03733500       2.51274000
H       -1.93973200       3.53751400       0.86253500
H        0.22689500       1.03736100       3.63357200
H       -1.71803800      -0.44119400       3.80536700
C        0.37526800       3.32033600       2.09415300
N        1.55957600       3.24653300       2.85691500
H        1.62681700       2.58907400       3.62030500
H        2.10749400       4.08981700       2.97861000
H        0.20307200       4.26954300       1.58638600
H        0.91024900       3.39476000       0.86855500
Cu       3.19032700       2.58865800       1.57120000
18
Properties=species:S:1:pos:R:3 energy=-1967.125868974587 pbc="F F F"
C       -2.98862000       1.81932900       1.60538700
C       -1.90013800       2.66633400       1.50438200
C       -0.72772700       2.40010600       2.23560500
C       -0.66711600       1.26630600       3.06794200
C       -1.76002400       0.42926300       3.16397200
C       -2.91924700       0.70185200       2.43298100
H       -3.89044800       2.02533500       1.04336300
H       -3.77013400       0.03732000       2.51305300
H       -1.93942100       3.53772900       0.86218500
H        0.22773100       1.03721700       3.63203500
H       -1.71860100      -0.44189400       3.80506700
C        0.39738700       3.31819800       2.09698200
N        1.57618100       3.21954000       2.93076400
H        1.57042500       2.57889400       3.70841900
H        2.12413500       4.05600800       3.07920800
H        0.23113600       4.29618900       1.63557500
H        0.87317600       3.28243600       0.92792200
Cu       3.22080900       2.44322700       1.76922000
18
Properties=species:S:1:pos:R:3 energy=-1967.154093917894 pbc="F F F"
C       -2.98862000       1.81932900       1.60538700
C       -1.90013800       2.66633400       1.50438200
C       -0.72772700       2.40010600       2.23560500
C       -0.66711600       1.26630600       3.06794200
C       -1.76002400       0.42926300       3.16397200
C       -2.91924700       0.70185200       2.43298100
H       -3.89091900       2.02516800       1.04365000
H       -3.77035200       0.03753500       2.51365300
H       -1.93927700       3.53800000       0.86203400
H        0.22861400       1.03630800       3.62973700
H       -1.71939100      -0.44275100       3.80440500
C        0.42432600       3.31576200       2.09339800
N        1.56575500       3.20466500       3.03072800
H        1.44899800       2.60085600       3.82867500
H        2.09113900       4.04689700       3.21643700
H        0.25228000       4.32978800       1.70489600
H        0.84416500       3.15929700       1.04679300
Cu       3.23102800       2.28139900       2.09487400
18
Properties=species:S:1:pos:R:3 energy=-1967.176198344892 pbc="F F F"
C       -2.98862000       1.81932900       1.60538700
C       -1.90013800       2.66633300       1.50438200
C       -0.72772700       2.40010700       2.23560500
C       -0.66711600       1.26630600       3.06794200
C       -1.76002400       0.42926300       3.16397200
C       -2.91924700       0.70185200       2.43298100
H       -3.89158200       2.02547000       1.04484800
H       -3.77097500       0.03852600       2.51520600
H       -1.93967700       3.53867400       0.86279800
H        0.23027300       1.03173100       3.62445200
H       -1.72003600      -0.44410200       3.80273900
C        0.45431300       3.30830800       2.05927100
N        1.48828100       3.23532600       3.14263100
H        1.20815300       2.70600400       3.95563500
H        1.91929200       4.11913000       3.37399900
H        0.22329600       4.35741600       1.81439100
H        0.88703100       3.02759300       1.12101900
Cu       3.18957200       2.21088600       2.58167700
18
Properties=species:S:1:pos:R:3 energy=-1967.183262719601 pbc="F F F"
C       -2.98862000       1.81932900       1.60538700
C       -1.90013800       2.66633300       1.50438200
C       -0.72772700       2.40010600       2.23560500
C       -0.66711600       1.26630600       3.06794200
C       -1.76002400       0.42926300       3.16397200
C       -2.91924700       0.70185200       2.43298100
H       -3.89228600       2.02592100       1.04628600
H       -3.77125300       0.03902800       2.51590500
H       -1.94061600       3.54007500       0.86502200
H        0.23201000       1.02634600       3.61971200
H       -1.72012400      -0.44497100       3.80139600
C        0.46683100       3.30614900       2.03188800
N        1.38489300       3.30241000       3.21314300
H        0.96766200       2.85462000       4.01946300
H        1.70140800       4.23366300       3.45028200
H        0.16093100       4.34408600       1.87921200
H        0.98684900       2.94670200       1.11482300
Cu       3.09876300       2.26851500       2.98071500
18
Properties=species:S:1:pos:R:3 energy=-1967.185330135193 pbc="F F F"
C       -2.98862000       1.81932900       1.60538700
C       -1.90013800       2.66633400       1.50438200
C       -0.72772700       2.40010600       2.23560500
C       -0.66711600       1.26630600       3.06794200
C       -1.76002400       0.42926300       3.16397200
C       -2.91924700       0.70185200       2.43298100
H       -3.89307800       2.02633400       1.04749900
H       -3.77117700       0.03884300       2.51561300
H       -1.94200600       3.54236000       0.86842100
H        0.23322800       1.02485200       3.61838900
H       -1.72023300      -0.44488900       3.80155300
C        0.46551100       3.31485200       2.03562700
N        1.34555500       3.36637900       3.25122600
H        0.85913000       2.99892200       4.06093300
H        1.61339000       4.32220200       3.45405500
H        0.13056300       4.33317800       1.85197400
H        1.01717200       2.93443200       1.18262500
Cu       3.02918300       2.31482400       3.18834100
18
Properties=species:S:1:pos:R:3 energy=-1967.186864414426 pbc="F F F"
C       -2.98862000       1.81932900       1.60538700
C       -1.90013800       2.66633300       1.50438200
C       -0.72772700       2.40010700       2.23560500
C       -0.66711600       1.26630600       3.06794200
C       -1.76002400       0.42926300       3.16397200
C       -2.91924700       0.70185200       2.43298100
H       -3.89348200       2.02623400       1.04813600
H       -3.77136700       0.03908400       2.51570700
H       -1.94343200       3.54458900       0.87171500
H        0.23349400       1.03001700       3.62172000
H       -1.72076100      -0.44365600       3.80323700
C        0.45992300       3.32240500       2.05146600
N        1.30038300       3.44546900       3.29137600
H        0.73609200       3.19741200       4.10059200
H        1.54479400       4.42151900       3.42928000
H        0.11214100       4.31507200       1.78142500
H        1.07452200       2.91919200       1.25919000
Cu       2.92166300       2.35843500       3.41965100
18
Properties=species:S:1:pos:R:3 energy=-1967.187556082498 pbc="F F F"
C       -2.98862000       1.81932900       1.60538700
C       -1.90013800       2.66633300       1.50438200
C       -0.72772700       2.40010700       2.23560500
C       -0.66711600       1.26630600       3.06794200
C       -1.76002400       0.42926300       3.16397200
C       -2.91924700       0.70185200       2.43298100
H       -3.89322600       2.02572300       1.04767700
H       -3.77162100       0.03946400       2.51598800
H       -1.94365400       3.54479800       0.87206600
H        0.23226800       1.03901600       3.62739000
H       -1.72122900      -0.44263300       3.80466600
C        0.45421400       3.32232500       2.06336900
N        1.26618400       3.49104200       3.31448200
H        0.66405000       3.31841100       4.11898900
H        1.52806100       4.46985600       3.40445300
H        0.10918100       4.29839100       1.72969200
H        1.11203800       2.92209700       1.29531300
Cu       2.84311500       2.37291700       3.54274600
18
Properties=species:S:1:pos:R:3 energy=-1967.188141978825 pbc="F F F"
C       -2.98862000       1.81932900       1.60538700
C       -1.90013800       2.66633300       1.50438200
C       -0.72772700       2.40010700       2.23560500
C       -0.66711600       1.26630600       3.06794200
C       -1.76002400       0.42926300       3.16397200
C       -2.91924700       0.70185200       2.43298100
H       -3.89293300       2.02526100       1.04718700
H       -3.77175700       0.03967400       2.51603000
H       -1.94360100       3.54456500       0.87181700
H        0.23181600       1.04838800       3.63110300
H       -1.72128400      -0.44268400       3.80464300
C        0.44940000       3.32075900       2.07620800
N        1.18560400       3.56969200       3.35785400
H        0.51549000       3.51077100       4.12592700
H        1.48971700       4.54127100       3.37468200
H        0.11156000       4.27032800       1.66020400
H        1.16902500       2.91520500       1.36017900
Cu       2.67312800       2.40689100       3.78729700
18
Properties=species:S:1:pos:R:3 energy=-1967.18869124567 pbc="F F F"
C       -2.98862000       1.81932900       1.60538700
C       -1.90013800       2.66633400       1.50438200
C       -0.72772700       2.40010600       2.23560500
C       -0.66711600       1.26630600       3.06794200
C       -1.76002400       0.42926300       3.16397200
C       -2.91924700       0.70185200       2.43298100
H       -3.89238400       2.02449900       1.04605300
H       -3.77149100       0.03928300       2.51545700
H       -1.94213400       3.54243600       0.86888100
H        0.23297100       1.05138900       3.63024000
H       -1.72090300      -0.44384700       3.80308800
C        0.45181900       3.31314200       2.07177000
N        1.13122300       3.63424200       3.36734200
H        0.42014800       3.68141200       4.09777800
H        1.50681800       4.57907600       3.31639400
H        0.13145500       4.23897200       1.58890400
H        1.20753200       2.88348700       1.40502900
Cu       2.51827300       2.42275000       3.96451400
18
Properties=species:S:1:pos:R:3 energy=-1967.18938281706 pbc="F F F"
C       -2.98862000       1.81932900       1.60538700
C       -1.90013800       2.66633400       1.50438200
C       -0.72772700       2.40010600       2.23560500
C       -0.66711600       1.26630600       3.06794200
C       -1.76002400       0.42926300       3.16397200
C       -2.91924700       0.70185200       2.43298100
H       -3.89237600       2.02439900       1.04604400
H       -3.77131300       0.03903500       2.51513600
H       -1.94246700       3.54322700       0.87012500
H        0.23431400       1.05562000       3.63065000
H       -1.72099700      -0.44424200       3.80257200
C        0.44759500       3.31879800       2.08745800
N        1.02811400       3.73195600       3.40444900
H        0.25514700       3.89481400       4.05109500
H        1.46697000       4.64450300       3.29585800
H        0.14461400       4.20779900       1.52879500
H        1.25895100       2.87045000       1.50220600
Cu       2.27260000       2.51309800       4.23696400
18
Properties=species:S:1:pos:R:3 energy=-1967.190792369325 pbc="F F F"
C       -2.98862000       1.81932900       1.60538700
C       -1.90013800       2.66633300       1.50438200
C       -0.72772700       2.40010600       2.23560500
C       -0.66711600       1.26630600       3.06794200
C       -1.76002400       0.42926300       3.16397200
C       -2.91924700       0.70185200       2.43298100
H       -3.89181800       2.02336700       1.04473300
H       -3.77026700       0.03753300       2.51349000
H       -1.94143800       3.54273700       0.86951300
H        0.24001100       1.05057500       3.62229700
H       -1.72025400      -0.44656100       3.79936000
C        0.44612800       3.32648500       2.10155300
N        0.87817200       3.88256700       3.42459600
H        0.04486400       4.20446500       3.91622200
H        1.43441300       4.71981300       3.26070300
H        0.18403100       4.15426300       1.43919500
H        1.31659900       2.83512300       1.65704000
Cu       1.85888600       2.69339800       4.59410000
18
Properties=species:S:1:pos:R:3 energy=-1967.191877198486 pbc="F F F"
C       -2.98862000       1.81932900       1.60538700
C       -1.90013800       2.66633400       1.50438200
C       -0.72772700       2.40010600       2.23560500
C       -0.66711600       1.26630600       3.06794200
C       -1.76002400       0.42926300       3.16397200
C       -2.91924700       0.70185200       2.43298100
H       -3.89119300       2.02220300       1.04327300
H       -3.76951900       0.03645500       2.51232800
H       -1.93996300       3.54127100       0.86741200
H        0.24374800       1.04483100       3.61531100
H       -1.71966600      -0.44805700       3.79725900
C        0.44722800       3.32758400       2.10586200
N        0.78207500       3.98619800       3.41066700
H       -0.07177700       4.40360900       3.77880800
H        1.41345100       4.76472300       3.23033900
H        0.22280000       4.10376300       1.37189000
H        1.34684500       2.80975600       1.76541000
Cu       1.55746900       2.86090700       4.78506000
18
Properties=species:S:1:pos:R:3 energy=-1967.192874745056 pbc="F F F"
C       -2.98862000       1.81932900       1.60538700
C       -1.90013800       2.66633400       1.50438200
C       -0.72772700       2.40010600       2.23560500
C       -0.66711600       1.26630600       3.06794200
C       -1.76002400       0.42926300       3.16397200
C       -2.91924700       0.70185200       2.43298100
H       -3.89072400       2.02127300       1.04216500
H       -3.76883700       0.03545800       2.51116700
H       -1.93907800       3.54058200       0.86636100
H        0.24697900       1.04119500       3.60969600
H       -1.71918600      -0.44921800       3.79561400
C        0.44613100       3.33104100       2.12080600
N        0.67672100       4.07840800       3.40048300
H       -0.18287800       4.57433700       3.63111600
H        1.37916800       4.79777100       3.23752800
H        0.26970700       4.05507600       1.32343700
H        1.37036100       2.79914600       1.88941700
Cu       1.20773700       3.02745200       4.94326800
18
Properties=species:S:1:pos:R:3 energy=-1967.193863053727 pbc="F F F"
C       -2.98862000       1.81932900       1.60538700
C       -1.90013800       2.66633400       1.50438200
C       -0.72772700       2.40010600       2.23560500
C       -0.66711600       1.26630600       3.06794200
C       -1.76002400       0.42926300       3.16397200
C       -2.91924700       0.70185200       2.43298100
H       -3.89017600       2.02014100       1.04081000
H       -3.76806400       0.03431500       2.50978000
H       -1.93778000       3.53939700       0.86422700
H        0.24863200       1.03568800       3.60400800
H       -1.71880500      -0.44984800       3.79469700
C        0.44566000       3.33514500       2.14689200
N        0.56287400       4.15696800       3.39560900
H       -0.28346300       4.71633700       3.48563100
H        1.33087500       4.81723100       3.29130400
H        0.33626900       4.00933400       1.29670300
H        1.37772800       2.78355200       2.03821100
Cu       0.79431600       3.17553600       5.06520300
18
Properties=species:S:1:pos:R:3 energy=-1967.194737435806 pbc="F F F"
C       -2.98861900       1.81932900       1.60538700
C       -1.90013800       2.66633400       1.50438200
C       -0.72772700       2.40010600       2.23560500
C       -0.66711600       1.26630600       3.06794200
C       -1.76002400       0.42926300       3.16397200
C       -2.91924700       0.70185200       2.43298100
H       -3.88951200       2.01885400       1.03926700
H       -3.76743700       0.03338100       2.50845200
H       -1.93626800       3.53769400       0.86148700
H        0.25101300       1.03163700       3.59822000
H       -1.71801500      -0.45103400       3.79302300
C        0.44432400       3.33802500       2.17950100
N        0.40733900       4.27082700       3.35170800
H       -0.37941100       4.90587400       3.23103700
H        1.24545900       4.84865500       3.36038100
H        0.43937000       3.92730300       1.26230300
H        1.37528900       2.77992000       2.24445900
Cu       0.16619500       3.42814100       5.10593400
18
Properties=species:S:1:pos:R:3 energy=-1967.194976729466 pbc="F F F"
C       -2.98862000       1.81932900       1.60538700
C       -1.90013800       2.66633400       1.50438200
C       -0.72772700       2.40010600       2.23560500
C       -0.66711600       1.26630600       3.06794200
C       -1.76002400       0.42926300       3.16397200
C       -2.91924700       0.70185200       2.43298100
H       -3.88958700       2.01902000       1.03946600
H       -3.76800200       0.03418100       2.50928500
H       -1.93692600       3.53834500       0.86222700
H        0.24627100       1.04221200       3.60874000
H       -1.71916000      -0.44918700       3.79570100
C        0.43309200       3.35165600       2.21041900
N        0.30848600       4.32269800       3.34294400
H       -0.42725200       4.99073200       3.12253600
H        1.16731900       4.85920500       3.44424700
H        0.48664300       3.90192800       1.27028300
H        1.36511200       2.81073300       2.35775100
Cu      -0.19805900       3.51310200       5.06085400
18
Properties=species:S:1:pos:R:3 energy=-1967.195096406298 pbc="F F F"
C       -2.98862000       1.81932900       1.60538700
C       -1.90013800       2.66633300       1.50438200
C       -0.72772700       2.40010700       2.23560500
C       -0.66711600       1.26630600       3.06794200
C       -1.76002400       0.42926300       3.16397200
C       -2.91924700       0.70185200       2.43298100
H       -3.88975400       2.01946700       1.03994000
H       -3.76835500       0.03470400       2.50971500
H       -1.93723800       3.53796300       0.86178000
H        0.24481200       1.04821600       3.61273500
H       -1.71889900      -0.44946000       3.79528600
C        0.42875200       3.35723400       2.20916500
N        0.29463400       4.34132300       3.32888800
H       -0.42547800       5.01992400       3.08961700
H        1.15903900       4.86637100       3.44073100
H        0.48335600       3.89377200       1.26064600
H        1.36930100       2.83024700       2.36188800
Cu      -0.25139400       3.52883200       5.02987900
18
Properties=species:S:1:pos:R:3 energy=-1967.195248419123 pbc="F F F"
C       -2.98862000       1.81932900       1.60538700
C       -1.90013800       2.66633400       1.50438200
C       -0.72772700       2.40010600       2.23560500
C       -0.66711600       1.26630600       3.06794200
C       -1.76002400       0.42926300       3.16397200
C       -2.91924700       0.70185200       2.43298100
H       -3.89031400       2.02061000       1.04127800
H       -3.76879800       0.03535500       2.51012500
H       -1.93844500       3.53814200       0.86209100
H        0.24494800       1.05245400       3.61411200
H       -1.71782700      -0.45050500       3.79368800
C        0.42115600       3.36820900       2.21348300
N        0.26828900       4.35732900       3.32592000
H       -0.43014300       5.05222500       3.06998600
H        1.13708500       4.86823700       3.46363200
H        0.47693200       3.89475900       1.25930000
H        1.36723900       2.85262000       2.37485800
Cu      -0.35650800       3.50294200       4.97800500
18
Properties=species:S:1:pos:R:3 energy=-1967.195106560051 pbc="F F F"
C       -2.98862000       1.81932900       1.60538700
C       -1.90013800       2.66633400       1.50438200
C       -0.72772700       2.40010600       2.23560500
C       -0.66711600       1.26630600       3.06794200
C       -1.76002400       0.42926300       3.16397200
C       -2.91924700       0.70185200       2.43298100
H       -3.89191300       2.02384500       1.04512100
H       -3.76989500       0.03705300       2.51118900
H       -1.94310800       3.54042100       0.86561300
H        0.24782900       1.05886600       3.61237900
H       -1.71438100      -0.45362900       3.78884100
C        0.39133000       3.40787600       2.25135400
N        0.14359900       4.39120200       3.34934500
H       -0.46826200       5.14294200       3.03983800
H        1.00944900       4.84547900       3.62647400
H        0.47384900       3.91434300       1.28827800
H        1.34525400       2.92383200       2.46252000
Cu      -0.81852100       3.36843800       4.73105300
18
Properties=species:S:1:pos:R:3 energy=-1967.195467715722 pbc="F F F"
C       -2.98862000       1.81932900       1.60538700
C       -1.90013800       2.66633300       1.50438200
C       -0.72772700       2.40010600       2.23560500
C       -0.66711600       1.26630600       3.06794200
C       -1.76002400       0.42926300       3.16397200
C       -2.91924700       0.70185200       2.43298100
H       -3.89096400       2.02202200       1.04290600
H       -3.76919000       0.03606900       2.51069900
H       -1.94098600       3.53980400       0.86477700
H        0.24960400       1.04878600       3.60591200
H       -1.71563100      -0.45240400       3.79070300
C        0.40858600       3.38666300       2.23100700
N        0.22908100       4.34520300       3.36469500
H       -0.44041900       5.06954300       3.11418400
H        1.10064900       4.82906500       3.56453400
H        0.45974000       3.92470900       1.28322600
H        1.35950000       2.87837300       2.38777800
Cu      -0.53748300       3.33642400       4.87632400
18
Properties=species:S:1:pos:R:3 energy=-1967.195531932117 pbc="F F F"
C       -2.98862000       1.81932900       1.60538700
C       -1.90013800       2.66633400       1.50438200
C       -0.72772700       2.40010600       2.23560500
C       -0.66711600       1.26630600       3.06794200
C       -1.76002400       0.42926300       3.16397200
C       -2.91924700       0.70185200       2.43298100
H       -3.89034700       2.02070600       1.04139500
H       -3.76830700       0.03482000       2.50975500
H       -1.93933700       3.53942900       0.86431400
H        0.25412900       1.03586500       3.59475300
H       -1.71576300      -0.45252700       3.79058500
C        0.42228300       3.36959800       2.21851400
N        0.31451800       4.28141100       3.39976000
H       -0.39480200       4.98942600       3.22299200
H        1.18724500       4.78360400       3.54222000
H        0.43875800       3.94913500       1.29455800
H        1.36902900       2.83938800       2.31151100
Cu      -0.28646400       3.23042800       4.96138500
18
Properties=species:S:1:pos:R:3 energy=-1967.195620883585 pbc="F F F"
C       -2.98862000       1.81932900       1.60538700
C       -1.90013800       2.66633300       1.50438200
C       -0.72772700       2.40010700       2.23560500
C       -0.66711600       1.26630600       3.06794200
C       -1.76002400       0.42926300       3.16397200
C       -2.91924700       0.70185200       2.43298100
H       -3.89048700       2.02099700       1.04178100
H       -3.76834500       0.03497800       2.51007100
H       -1.93980600       3.54015200       0.86546300
H        0.25695600       1.03143200       3.58866100
H       -1.71509700      -0.45311300       3.78964100
C        0.42024300       3.37320300       2.22576800
N        0.31126000       4.26301100       3.42295200
H       -0.38632100       4.98468000       3.25503500
H        1.18872900       4.74874400       3.58951400
H        0.43113900       3.96463000       1.30939400
H        1.36870700       2.84368200       2.30733800
Cu      -0.34560900       3.14596300       4.92247900
18
Properties=species:S:1:pos:R:3 energy=-1967.195697886418 pbc="F F F"
C       -2.98862000       1.81932900       1.60538700
C       -1.90013800       2.66633300       1.50438200
C       -0.72772700       2.40010700       2.23560500
C       -0.66711600       1.26630600       3.06794200
C       -1.76002400       0.42926300       3.16397200
C       -2.91924700       0.70185200       2.43298100
H       -3.89043200       2.02081700       1.04168400
H       -3.76803500       0.03462400       2.50990800
H       -1.93918100       3.54036500       0.86574400
H        0.26079000       1.02399000       3.57930700
H       -1.71447500      -0.45414400       3.78811400
C        0.42190100       3.37168100       2.23199000
N        0.29900800       4.26876000       3.42254300
H       -0.37129100       5.00898700       3.22618800
H        1.18405000       4.72908600       3.61791100
H        0.44259100       3.95727400       1.31205300
H        1.37002200       2.84328500       2.32733100
Cu      -0.45434100       3.16328600       4.89108800
18
Properties=species:S:1:pos:R:3 energy=-1967.195522524886 pbc="F F F"
C       -2.98862000       1.81932900       1.60538700
C       -1.90013800       2.66633400       1.50438200
C       -0.72772700       2.40010600       2.23560500
C       -0.66711600       1.26630600       3.06794200
C       -1.76002400       0.42926300       3.16397200
C       -2.91924700       0.70185200       2.43298100
H       -3.89049800       2.02080100       1.04194400
H       -3.76766000       0.03439900       2.51061900
H       -1.93858600       3.54298700       0.86943800
H        0.26881500       1.00467500       3.55640700
H       -1.71350900      -0.45550800       3.78599600
C        0.42051500       3.37528300       2.26092000
N        0.26818000       4.25067700       3.46479800
H       -0.32310500       5.04529700       3.23206100
H        1.16516900       4.63012200       3.75335600
H        0.45379900       3.97298500       1.34935800
H        1.36916200       2.84934900       2.36495000
Cu      -0.74929900       3.11120200       4.76680800
18
Properties=species:S:1:pos:R:3 energy=-1967.195756281105 pbc="F F F"
C       -2.98862000       1.81932900       1.60538700
C       -1.90013800       2.66633400       1.50438200
C       -0.72772700       2.40010600       2.23560500
C       -0.66711600       1.26630600       3.06794200
C       -1.76002400       0.42926300       3.16397200
C       -2.91924700       0.70185200       2.43298100
H       -3.89048900       2.02088700       1.04185300
H       -3.76812800       0.03488900       2.51076600
H       -1.93918600       3.54219700       0.86830100
H        0.26177300       1.01887800       3.57491200
H       -1.71488700      -0.45354600       3.78895500
C        0.41964900       3.37525100       2.24608300
N        0.29208900       4.25146900       3.45235800
H       -0.35364600       5.01232000       3.25390900
H        1.18388600       4.68166100       3.68099500
H        0.43819400       3.97615400       1.33616900
H        1.36903600       2.84803300       2.33211300
Cu      -0.54700500       3.11328600       4.86238200
18
Properties=species:S:1:pos:R:3 energy=-1967.195709330698 pbc="F F F"
C       -2.98862000       1.81932900       1.60538700
C       -1.90013800       2.66633300       1.50438200
C       -0.72772700       2.40010600       2.23560500
C       -0.66711600       1.26630600       3.06794200
C       -1.76002400       0.42926300       3.16397200
C       -2.91924700       0.70185200       2.43298100
H       -3.89043600       2.02078000       1.04170200
H       -3.76795600       0.03462500       2.51044400
H       -1.93885800       3.54190300       0.86795300
H        0.26234400       1.01726200       3.57385100
H       -1.71459800      -0.45401700       3.78827900
C        0.42270600       3.37151700       2.23961400
N        0.32531000       4.22590000       3.46453000
H       -0.33515100       4.98211500       3.29962500
H        1.21969900       4.66253500       3.66999600
H        0.42444700       3.98922500       1.34086700
H        1.37157300       2.83936000       2.29610600
Cu      -0.44700100       3.06082400       4.89040600
18
Properties=species:S:1:pos:R:3 energy=-1967.195764176998 pbc="F F F"
C       -2.98862000       1.81932900       1.60538700
C       -1.90013800       2.66633400       1.50438200
C       -0.72772700       2.40010600       2.23560500
C       -0.66711600       1.26630600       3.06794200
C       -1.76002400       0.42926300       3.16397200
C       -2.91924700       0.70185200       2.43298100
H       -3.89049400       2.02091400       1.04184300
H       -3.76814600       0.03489300       2.51073700
H       -1.93901800       3.54208600       0.86816700
H        0.26092100       1.02020800       3.57726300
H       -1.71487200      -0.45362200       3.78885600
C        0.42025900       3.37456800       2.24276600