18
Coordinates from ORCA-job orca Relaxed Surface Scan Step 1 E -1967.143571675743
  C      -2.988580      1.819300      1.605338
  C      -1.900108      2.666308      1.504331
  C      -0.727711      2.400116      2.235586
  C      -0.667125      1.266334      3.067957
  C      -1.760037      0.429286      3.164004
  C      -2.919238      0.701844      2.432975
  H      -3.889097      2.025606      1.043221
  H      -3.769746      0.037321      2.512283
  H      -1.939729      3.536843      0.862213
  H       0.225379      1.036304      3.634717
  H      -1.717592     -0.440546      3.805287
  C       0.352302      3.327655      2.083059
  N       1.528762      3.287339      2.748963
  H       1.679560      2.616082      3.494753
  H       2.065056      4.145064      2.833102
  H       0.169717      4.240808      1.528856
  H       1.767453      2.039583     -0.537675
  Cu      1.913194      2.499212      0.894070
>
18
Coordinates from ORCA-job orca Relaxed Surface Scan Step 2 E -1967.143576809622
  C      -2.986630      1.818359      1.603636
  C      -1.896764      2.663380      1.500504
  C      -0.725044      2.397447      2.232620
  C      -0.666013      1.265328      3.067054
  C      -1.760333      0.430123      3.165273
  C      -2.919265      0.702845      2.434063
  H      -3.886831      2.024956      1.041106
  H      -3.770942      0.040048      2.515184
  H      -1.935177      3.532500      0.856384
  H       0.226131      1.034875      3.634234
  H      -1.718927     -0.438270      3.808584
  C       0.356183      3.324450      2.079678
  N       1.530317      3.286554      2.751461
  H       1.678269      2.615914      3.498253
  H       2.063999      4.145529      2.838462
  H       0.172742      4.238317      1.526931
  H       1.747411      2.050491     -0.536071
  Cu      1.913334      2.501613      0.895684
>
18
Coordinates from ORCA-job orca Relaxed Surface Scan Step 3 E -1967.143560767055
  C      -2.984228      1.817314      1.601423
  C      -1.893812      2.661679      1.497921
  C      -0.722890      2.396331      2.231226
  C      -0.665300      1.265783      3.067592
  C      -1.760121      0.431081      3.166189
  C      -2.918197      0.702955      2.433497
  H      -3.883824      2.023516      1.037756
  H      -3.770212      0.040615      2.514807
  H      -1.931238      3.529688      0.852237
  H       0.226265      1.035739      3.635869
  H      -1.719585     -0.436281      3.810958
  C       0.359809      3.322385      2.077318
  N       1.532082      3.285584      2.753544
  H       1.677391      2.615780      3.501529
  H       2.064868      4.144917      2.842003
  H       0.176743      4.236824      1.525420
  H       1.723652      2.058738     -0.533267
  Cu      1.911057      2.501812      0.897019
>
18
Coordinates from ORCA-job orca Relaxed Surface Scan Step 4 E -1967.143541968126
  C      -2.981842      1.816078      1.599151
  C      -1.890014      2.658440      1.493698
  C      -0.720037      2.393592      2.228398
  C      -0.664150      1.264798      3.066959
  C      -1.760423      0.432041      3.167652
  C      -2.918062      0.703991      2.434456
  H      -3.880974      2.022405      1.034787
  H      -3.771311      0.043460      2.517586
  H      -1.926080      3.524917      0.845866
  H       0.226802      1.034694      3.636191
  H      -1.721234     -0.433643      3.814756
  C       0.363651      3.319383      2.074552
  N       1.533737      3.284714      2.756378
  H       1.676540      2.615371      3.505152
  H       2.064399      4.145008      2.847437
  H       0.179715      4.234613      1.524235
  H       1.701353      2.070570     -0.532217
  Cu      1.910390      2.504025      0.898002
>
18
Coordinates from ORCA-job orca Relaxed Surface Scan Step 5 E -1967.143510764330
  C      -2.979394      1.815157      1.596944
  C      -1.887756      2.658003      1.492605
  C      -0.718598      2.393933      2.228572
  C      -0.663949      1.266517      3.068717
  C      -1.759947      0.433021      3.168210
  C      -2.916272      0.703267      2.432544
  H      -3.877706      2.020666      1.030939
  H      -3.769038      0.041941      2.514206
  H      -1.923138      3.523771      0.843781
  H       0.226238      1.037248      3.639503
  H      -1.721259     -0.432104      3.816122
  C       0.367199      3.317916      2.072511
  N       1.535773      3.283625      2.757639
  H       1.675985      2.615363      3.507771
  H       2.066363      4.143864      2.849013
  H       0.184224      4.233609      1.522703
  H       1.676498      2.076425     -0.527809
  Cu      1.907237      2.502239      0.899070
>
18
Coordinates from ORCA-job orca Relaxed Surface Scan Step 6 E -1967.143424127905
  C      -2.977194      1.813880      1.594814
  C      -1.884501      2.655272      1.489109
  C      -0.716155      2.391774      2.226279
  C      -0.663189      1.266245      3.068745
  C      -1.760292      0.434135      3.169755
  C      -2.915980      0.703940      2.433137
  H      -3.874922      2.019131      1.027771
  H      -3.769676      0.043990      2.516169
  H      -1.918583      3.519457      0.838099
  H       0.226490      1.037029      3.640362
  H      -1.722760     -0.429499      3.819737
  C       0.370838      3.315246      2.069762
  N       1.537403      3.282270      2.759544
  H       1.675185      2.614156      3.510140
  H       2.066172      4.143278      2.853418
  H       0.187339      4.232024      1.521978
  H       1.655625      2.088182     -0.525360
  Cu      1.906661      2.503949      0.899579
>
18
Coordinates from ORCA-job orca Relaxed Surface Scan Step 7 E -1967.143379117791
  C      -2.974696      1.812734      1.592438
  C      -1.881405      2.653376      1.486377
  C      -0.714028      2.390592      2.225056
  C      -0.662558      1.266655      3.069448
  C      -1.760245      0.435155      3.170850
  C      -2.914981      0.704088      2.432598
  H      -3.871739      2.017593      1.024154
  H      -3.769030      0.044606      2.515704
  H      -1.914432      3.516419      0.833790
  H       0.226294      1.037955      3.642575
  H      -1.723708     -0.427283      3.822488
  C       0.374491      3.312984      2.067504
  N       1.539407      3.281183      2.761525
  H       1.674751      2.613834      3.513152
  H       2.067082      4.142625      2.856921
  H       0.190903      4.230337      1.520717
  H       1.631494      2.097550     -0.522533
  Cu      1.904860      2.504055      0.900278
>
18
Coordinates from ORCA-job orca Relaxed Surface Scan Step 8 E -1967.143318810032
  C      -2.972384      1.811496      1.590219
  C      -1.878229      2.650961      1.483182
  C      -0.711711      2.388821      2.223159
  C      -0.661827      1.266655      3.069693
  C      -1.760416      0.436240      3.172189
  C      -2.914413      0.704569      2.432767
  H      -3.868801      2.016012      1.020801
  H      -3.769188      0.046150      2.516801
  H      -1.910043      3.512558      0.828612
  H       0.226450      1.038156      3.643806
  H      -1.724947     -0.424838      3.825698
  C       0.378074      3.310575      2.065030
  N       1.541073      3.279945      2.763472
  H       1.674020      2.613008      3.515781
  H       2.067331      4.141955      2.860858
  H       0.194282      4.228795      1.519801
  H       1.609291      2.108485     -0.519560
  Cu      1.903899      2.504917      0.900730
>
18
Coordinates from ORCA-job orca Relaxed Surface Scan Step 9 E -1967.143259555137
  C      -2.970111      1.810469      1.588101
  C      -1.875282      2.649047      1.480460
  C      -0.709589      2.387492      2.221669
  C      -0.661102      1.266853      3.070015
  C      -1.760355      0.437177      3.173147
  C      -2.913579      0.704838      2.432460
  H      -3.865957      2.014704      1.017670
  H      -3.768802      0.047045      2.516834
  H      -1.906081      3.509504      0.824335
  H       0.226508      1.038684      3.645311
  H      -1.725802     -0.422757      3.828223
  C       0.381636      3.308280      2.062571
  N       1.542833      3.278988      2.765385
  H       1.673322      2.612846      3.518730
  H       2.067887      4.141489      2.864230
  H       0.197673      4.227074      1.518375
  H       1.586467      2.117832     -0.515886
  Cu      1.902793      2.504895      0.901411
>
18
Coordinates from ORCA-job orca Relaxed Surface Scan Step 10 E -1967.143181008595
  C      -2.967938      1.809398      1.586071
  C      -1.872314      2.646897      1.477533
  C      -0.707380      2.385891      2.219834
  C      -0.660309      1.266860      3.070081
  C      -1.760377      0.438157      3.174210
  C      -2.912948      0.705273      2.432504
  H      -3.863237      2.013360      1.014664
  H      -3.768797      0.048400      2.517657
  H      -1.902048      3.506064      0.819655
  H       0.226810      1.038848      3.646213
  H      -1.726762     -0.420565      3.830935
  C       0.385145      3.305968      2.060020
  N       1.544388      3.277954      2.767260
  H       1.672400      2.612435      3.521475
  H       2.068099      4.140997      2.867823
  H       0.201022      4.225467      1.517106
  H       1.564584      2.127857     -0.511983
  Cu      1.902122      2.505200      0.901980
>
18
Coordinates from ORCA-job orca Relaxed Surface Scan Step 11 E -1967.143163210290
  C      -2.965768      1.808403      1.584056
  C      -1.869452      2.644971      1.474830
  C      -0.705285      2.384519      2.218256
  C      -0.659565      1.266996      3.070274
  C      -1.760328      0.439084      3.175140
  C      -2.912197      0.705593      2.432308
  H      -3.860524      2.012094      1.011684
  H      -3.768527      0.049407      2.517912
  H      -1.898183      3.502965      0.815367
  H       0.226962      1.039236      3.647437
  H      -1.727595     -0.418514      3.833392
  C       0.388636      3.303694      2.057508
  N       1.546049      3.277004      2.769057
  H       1.671608      2.612251      3.524260
  H       2.068526      4.140546      2.871101
  H       0.204302      4.223785      1.515689
  H       1.542393      2.137341     -0.507739
  Cu      1.901407      2.505086      0.902510
>
18
Coordinates from ORCA-job orca Relaxed Surface Scan Step 12 E -1967.143043733668
  C      -2.963672      1.807300      1.582081
  C      -1.866493      2.642662      1.471750
  C      -0.703061      2.382766      2.216227
  C      -0.658741      1.266901      3.070179
  C      -1.760396      0.440095      3.176266
  C      -2.911674      0.706110      2.432543
  H      -3.857938      2.010758      1.008835
  H      -3.768693      0.050949      2.519091
  H      -1.894159      3.499325      0.810503
  H       0.227286      1.039337      3.648200
  H      -1.728624     -0.416187      3.836292
  C       0.392138      3.301298      2.054860
  N       1.547512      3.275867      2.770885
  H       1.670553      2.611630      3.526862
  H       2.068522      4.139997      2.874830
  H       0.207552      4.222175      1.514489
  H       1.521121      2.148011     -0.503646
  Cu      1.901226      2.505466      0.902793
>
18
Coordinates from ORCA-job orca Relaxed Surface Scan Step 13 E -1967.142894754436
  C      -2.961537      1.806433      1.580130
  C      -1.863862      2.641170      1.469534
  C      -0.701157      2.381795      2.215070
  C      -0.658076      1.267271      3.070564
  C      -1.760223      0.440937      3.176955
  C      -2.910741      0.706245      2.431975
  H      -3.855223      2.009551      1.005851
  H      -3.768046      0.051466      2.518553
  H      -1.890627      3.496814      0.806915
  H       0.227372      1.039968      3.649600
  H      -1.729204     -0.414433      3.838207
  C       0.395521      3.299223      2.052475
  N       1.549206      3.275067      2.772465
  H       1.669850      2.611843      3.529602
  H       2.069238      4.139578      2.877392
  H       0.210865      4.220506      1.512853
  H       1.498726      2.156460     -0.498419
  Cu      1.900378      2.504568      0.903318
>
18
Coordinates from ORCA-job orca Relaxed Surface Scan Step 14 E -1967.142798296545
  C      -2.959911      1.805646      1.578292
  C      -1.861902      2.639930      1.467394
  C      -0.699624      2.380907      2.213650
  C      -0.657420      1.267384      3.070416
  C      -1.759934      0.441527      3.177195
  C      -2.909968      0.706374      2.431365
  H      -3.853238      2.008466      1.003337
  H      -3.767571      0.052024      2.518276
  H      -1.888047      3.494859      0.803828
  H       0.227634      1.040466      3.650200
  H      -1.729548     -0.413086      3.839460
  C       0.397517      3.297986      2.050850
  N       1.550863      3.274374      2.773104
  H       1.670867      2.611763      3.530825
  H       2.070857      4.138848      2.878137
  H       0.213466      4.219246      1.511030
  H       1.480192      2.163674     -0.489106
  Cu      1.898229      2.504074      0.904786
>
18
Coordinates from ORCA-job orca Relaxed Surface Scan Step 15 E -1967.142702048490
  C      -2.958030      1.805377      1.577235
  C      -1.858717      2.637784      1.464599
  C      -0.697008      2.378711      2.211304
  C      -0.656056      1.266530      3.069450
  C      -1.759803      0.442170      3.177827
  C      -2.909671      0.707399      2.432109
  H      -3.851059      2.008581      1.001937
  H      -3.768202      0.054416      2.520172
  H      -1.883735      3.491329      0.799183
  H       0.228997      1.038365      3.648781
  H      -1.730029     -0.411653      3.841153
  C       0.402196      3.294366      2.046700
  N       1.551968      3.274496      2.776182
  H       1.667428      2.614124      3.536408
  H       2.068800      4.140470      2.883390
  H       0.216530      4.215956      1.508000
  H       1.457859      2.173083     -0.486979
  Cu      1.900992      2.502956      0.905589
>
18
Coordinates from ORCA-job orca Relaxed Surface Scan Step 16 E -1967.142563133649
  C      -2.955987      1.803777      1.575109
  C      -1.855956      2.635177      1.461277
  C      -0.694967      2.377055      2.209049
  C      -0.655437      1.266927      3.069564
  C      -1.759952      0.443554      3.179422
  C      -2.909128      0.707710      2.432507
  H      -3.848527      2.006417      0.998823
  H      -3.768230      0.055637      2.521651
  H      -1.879998      3.487211      0.793888
  H       0.229014      1.039762      3.650235
  H      -1.731238     -0.408487      3.845101
  C       0.405576      3.292306      2.044157
  N       1.552958      3.272375      2.777754
  H       1.665666      2.611764      3.538101
  H       2.069267      4.138365      2.886982
  H       0.220567      4.215120      1.507385
  H       1.437690      2.186729     -0.482791
  Cu      1.901143      2.503061      0.904827
>
18
Coordinates from ORCA-job orca Relaxed Surface Scan Step 17 E -1967.142405652061
  C      -2.954453      1.803043      1.573371
  C      -1.854141      2.634068      1.459325
  C      -0.693517      2.376246      2.207712
  C      -0.654833      1.267098      3.069456
  C      -1.759670      0.444115      3.179602
  C      -2.908364      0.707792      2.431851
  H      -3.846650      2.005384      0.996438
  H      -3.767708      0.056068      2.521230
  H      -1.877614      3.485437      0.791061
  H       0.229212      1.040333      3.650900
  H      -1.731542     -0.407222      3.846213
  C       0.407552      3.291020      2.042416
  N       1.554585      3.271666      2.778203
  H       1.666623      2.611743      3.539167
  H       2.070828      4.137631      2.887425
  H       0.223143      4.213797      1.505440
  H       1.419861      2.193898     -0.472972
  Cu      1.899149      2.502343      0.906202
>
18
Coordinates from ORCA-job orca Relaxed Surface Scan Step 18 E -1967.142329627138
  C      -2.953035      1.802589      1.572603
  C      -1.851305      2.631498      1.456163
  C      -0.691029      2.373662      2.204653
  C      -0.653486      1.266094      3.068012
  C      -1.759710      0.444937      3.180559
  C      -2.908450      0.708954      2.433268
  H      -3.845157      2.005347      0.995681
  H      -3.768857      0.058889      2.524442
  H      -1.873799      3.481379      0.785955
  H       0.230585      1.038348      3.649072
  H      -1.732204     -0.405199      3.848743
  C       0.412071      3.287170      2.037745
  N       1.555283      3.271061      2.780763
  H       1.662625      2.612755      3.543691
  H       2.068272      4.138521      2.892724
  H       0.225917      4.210704      1.502697
  H       1.401752      2.205947     -0.470345
  Cu      1.902987      2.501802      0.906614
>
18
Coordinates from ORCA-job orca Relaxed Surface Scan Step 19 E -1967.142085810974
  C      -2.951593      1.801813      1.570971
  C      -1.849588      2.630351      1.454186
  C      -0.689590      2.372832      2.203122
  C      -0.652863      1.266308      3.067762
  C      -1.759397      0.445541      3.180762
  C      -2.907712      0.709018      2.432726
  H      -3.843444      2.004268      0.993506
  H      -3.768354      0.059308      2.524246
  H      -1.871585      3.479563      0.783110
  H       0.230877      1.039122      3.649543
  H      -1.732452     -0.403822      3.849961
  C       0.414085      3.285930      2.035849
  N       1.556679      3.270172      2.781146
  H       1.663067      2.612477      3.544651
  H       2.069669      4.137548      2.893254
  H       0.228846      4.209543      1.500690
  H       1.384610      2.213488     -0.460384
  Cu      1.901204      2.500998      0.907941
>
18
Coordinates from ORCA-job orca Relaxed Surface Scan Step 20 E -1967.141909699797
  C      -2.951122      1.802528      1.571656
  C      -1.847633      2.628796      1.451824
  C      -0.687128      2.370291      2.199170
  C      -0.650646      1.264397      3.064214
  C      -1.758506      0.445521      3.180110
  C      -2.907840      0.710459      2.434371
  H      -3.843630      2.006208      0.995619
  H      -3.769545      0.062480      2.528105
  H      -1.869359      3.477244      0.779751
  H       0.234137      1.035304      3.643713
  H      -1.731421     -0.403549      3.849691
  C       0.418364      3.282350      2.030373
  N       1.555846      3.271284      2.784468
  H       1.656392      2.616923      3.551530
  H       2.065934      4.140123      2.897783
  H       0.232439      4.205539      1.494760
  H       1.369531      2.220900     -0.454950
  Cu      1.906648      2.497664      0.910853
>
18
Coordinates from ORCA-job orca Relaxed Surface Scan Step 21 E -1967.141778735101
  C      -2.949388      1.801200      1.569930
  C      -1.845150      2.626354      1.448809
  C      -0.685288      2.368672      2.197055
  C      -0.650064      1.264660      3.064227
  C      -1.758667      0.446738      3.181517
  C      -2.907471      0.710873      2.434916
  H      -3.841490      2.004460      0.993096
  H      -3.769731      0.063784      2.529676
  H      -1.865959      3.473329      0.774834
  H       0.234296      1.036140      3.644623
  H      -1.732443     -0.400837      3.853041
  C       0.421643      3.280104      2.027503
  N       1.556717      3.269423      2.785743
  H       1.654475      2.615175      3.553122
  H       2.066116      4.138369      2.900687
  H       0.235910      4.204376      1.493783
  H       1.351382      2.234420     -0.449624
  Cu      1.907571      2.497220      0.910104
>
18
Coordinates from ORCA-job orca Relaxed Surface Scan Step 22 E -1967.141511896675
  C      -2.948100      1.800587      1.568448
  C      -1.843546      2.625287      1.446893
  C      -0.683903      2.367796      2.195482
  C      -0.649392      1.264704      3.063774
  C      -1.758326      0.447218      3.181537
  C      -2.906816      0.711007      2.434408
  H      -3.840004      2.003674      0.991232
  H      -3.769344      0.064336      2.529576
  H      -1.863909      3.471674      0.772164
  H       0.234683      1.036532      3.644731
  H      -1.732580     -0.399691      3.853923
  C       0.423542      3.278775      2.025515
  N       1.558125      3.268785      2.786101
  H       1.655085      2.615328      3.554182
  H       2.067396      4.137751      2.901002
  H       0.238483      4.202965      1.491488
  H       1.335039      2.241449     -0.438984
  Cu      1.906028      2.496282      0.911567
>
18
Coordinates from ORCA-job orca Relaxed Surface Scan Step 23 E -1967.141296720002
  C      -2.947951      1.801627      1.569506
  C      -1.841958      2.624078      1.444745
  C      -0.681540      2.365289      2.191249
  C      -0.647002      1.262583      3.059655
  C      -1.757217      0.447017      3.180498
  C      -2.906967      0.712549      2.436111
  H      -3.840715      2.006122      0.994103
  H      -3.770554      0.067642      2.533618
  H      -1.862319      3.469934      0.769335
  H       0.238320      1.032334      3.637940
  H      -1.731121     -0.399756      3.853055
  C       0.427623      3.275212      2.019813
  N       1.557040      3.270199      2.789221
  H       1.648142      2.620120      3.560794
  H       2.063171      4.140747      2.905362
  H       0.241516      4.198809      1.485172
  H       1.321863      2.247218     -0.432041
  Cu      1.912128      2.492737      0.914905
>
18
Coordinates from ORCA-job orca Relaxed Surface Scan Step 24 E -1967.141075620314
  C      -2.947157      1.801253      1.569084
  C      -1.840295      2.622335      1.442406
  C      -0.679825      2.363550      2.188432
  C      -0.645859      1.262068      3.058049
  C      -1.756869      0.447601      3.180798
  C      -2.906869      0.713236      2.437070
  H      -3.840105      2.006033      0.994036
  H      -3.771060      0.069360      2.536036
  H      -1.860229      3.467208      0.765720
  H       0.239750      1.031532      3.635816
  H      -1.731006     -0.398370      3.854390
  C       0.430813      3.272784      2.015845
  N       1.556922      3.269505      2.790575
  H       1.644435      2.620583      3.563410
  H       2.061774      4.140556      2.907863
  H       0.245113      4.196902      1.482065
  H       1.308142      2.257366     -0.424533
  Cu      1.914785      2.490956      0.915979
>
18
Coordinates from ORCA-job orca Relaxed Surface Scan Step 25 E -1967.140831381088
  C      -2.945921      1.800674      1.567648
  C      -1.838748      2.621298      1.440528
  C      -0.678489      2.362703      2.186881
  C      -0.645193      1.262093      3.057555
  C      -1.756518      0.448051      3.180765
  C      -2.906231      0.713376      2.436556
  H      -3.838688      2.005306      0.992260
  H      -3.770677      0.069902      2.535909
  H      -1.858279      3.465621      0.763151
  H       0.240151      1.031901      3.635856
  H      -1.731118     -0.397275      3.855191
  C       0.432662      3.271465      2.013843
  N       1.558324      3.268898      2.790850
  H       1.645057      2.620793      3.564392
  H       2.063050      4.139978      2.908040
  H       0.247592      4.195483      1.479751
  H       1.292173      2.264246     -0.413496
  Cu      1.913312      2.489948      0.917360
>
18
Coordinates from ORCA-job orca Relaxed Surface Scan Step 26 E -1967.140585469394
  C      -2.945922      1.801970      1.568961
  C      -1.837376      2.620413      1.438642
  C      -0.676207      2.360310      2.182595
  C      -0.642694      1.259887      3.053131
  C      -1.755207      0.447694      3.179395
  C      -2.906304      0.714928      2.438179
  H      -3.839666      2.008151      0.995626
  H      -3.771738      0.073142      2.539820
  H      -1.857089      3.464403      0.760837
  H       0.244012      1.027606      3.628561
  H      -1.729318     -0.397681      3.853754
  C       0.436653      3.268010      2.008080
  N       1.556975      3.270612      2.793868
  H       1.637723      2.626003      3.570879
  H       2.058506      4.143291      2.912175
  H       0.250451      4.191293      1.473171
  H       1.279707      2.268595     -0.405517
  Cu      1.919951      2.485831      0.920883
>
18
Coordinates from ORCA-job orca Relaxed Surface Scan Step 27 E -1967.140248614270
  C      -2.945165      1.801739      1.568605
  C      -1.835905      2.619042      1.436680
  C      -0.674615      2.358872      2.180056
  C      -0.641557      1.259498      3.051572
  C      -1.754738      0.448184      3.179451
  C      -2.906066      0.715484      2.438854
  H      -3.839089      2.008217      0.995630
  H      -3.771948      0.074489      2.541643
  H      -1.855299      3.462222      0.757830
  H       0.245435      1.026953      3.626496
  H      -1.728971     -0.396575      3.854604
  C       0.439763      3.265785      2.004234
  N       1.556778      3.270140      2.795046
  H       1.634057      2.626739      3.573297
  H       2.057171      4.143272      2.914175
  H       0.254062      4.189500      1.470009
  H       1.265938      2.277406     -0.397051
  Cu      1.922609      2.483495      0.921909
>
18
Coordinates from ORCA-job orca Relaxed Surface Scan Step 28 E -1967.140048790575
  C      -2.944763      1.802432      1.568921
  C      -1.834614      2.618306      1.434990
  C      -0.672808      2.357227      2.176974
  C      -0.639787      1.258136      3.048632
  C      -1.753701      0.447966      3.178333
  C      -2.905805      0.716409      2.439457
  H      -3.839269      2.009867      0.997172
  H      -3.772341      0.076513      2.543683
  H      -1.854052      3.461240      0.755829
  H       0.247912      1.024544      3.622062
  H      -1.727767     -0.396713      3.853602
  C       0.442608      3.263439      2.000266
  N       1.556265      3.271246      2.796880
  H       1.630129      2.630201      3.577308
  H       2.055093      4.145177      2.916063
  H       0.256777      4.186410      1.464884
  H       1.252611      2.281814     -0.386642
  Cu      1.925975      2.480246      0.924625
>
18
Coordinates from ORCA-job orca Relaxed Surface Scan Step 29 E -1967.139755104554
  C      -2.943587      1.801783      1.567515
  C      -1.833209      2.617319      1.433266
  C      -0.671591      2.356464      2.175532
  C      -0.639242      1.258309      3.048299
  C      -1.753432      0.448492      3.178425
  C      -2.905200      0.716481      2.438964
  H      -3.837865      2.008962      0.995323
  H      -3.771917      0.076888      2.543483
  H      -1.852236      3.459644      0.753336
  H       0.248210      1.025112      3.622260
  H      -1.727926     -0.395551      3.854500
  C       0.444466      3.262131      1.998178
  N       1.557649      3.270455      2.796921
  H       1.630660      2.630119      3.577954
  H       2.056389      4.144393      2.916075
  H       0.259381      4.185148      1.462720
  H       1.237327      2.289128     -0.375398
  Cu      1.924582      2.479182      0.925690
>
18
Coordinates from ORCA-job orca Relaxed Surface Scan Step 30 E -1967.139468415770
  C      -2.943625      1.803079      1.568842
  C      -1.831962      2.616527      1.431556
  C      -0.669463      2.354180      2.171448
  C      -0.636857      1.256205      3.044031
  C      -1.752175      0.448147      3.177075
  C      -2.905264      0.717954      2.440514
  H      -3.838836      2.011790      0.998641
  H      -3.772879      0.079941      2.547187
  H      -1.851188      3.458560      0.751248
  H       0.251830      1.021058      3.615341
  H      -1.726187     -0.395962      3.853066
  C       0.448349      3.258784      1.992510
  N       1.556237      3.272106      2.799495
  H       1.623536      2.634889      3.583488
  H       2.051651      4.147666      2.919921
  H       0.262018      4.181274      1.456648
  H       1.225693      2.293204     -0.366645
  Cu      1.931582      2.475058      0.928674
>
18
Coordinates from ORCA-job orca Relaxed Surface Scan Step 31 E -1967.139228244162
  C      -2.943079      1.803114      1.568814
  C      -1.830727      2.615406      1.429873
  C      -0.667945      2.352791      2.168863
  C      -0.635612      1.255637      3.042121
  C      -1.751557      0.448421      3.176782
  C      -2.905036      0.718526      2.441188
  H      -3.838604      2.012313      0.999261
  H      -3.773065      0.081273      2.548998
  H      -1.849794      3.456829      0.748782
  H       0.253466      1.020143      3.612723
  H      -1.725551     -0.395261      3.853319
  C       0.451359      3.256641      1.988562
  N       1.555667      3.272005      2.800555
  H       1.619464      2.636144      3.585831
  H       2.049929      4.148054      2.921564
  H       0.265653      4.179369      1.453028
  H       1.213102      2.300877     -0.357133
  Cu      1.934791      2.472178      0.929910
>
18
Coordinates from ORCA-job orca Relaxed Surface Scan Step 32 E -1967.138836301294
  C      -2.941997      1.802604      1.567511
  C      -1.829373      2.614478      1.428161
  C      -0.666741      2.351985      2.167370
  C      -0.635006      1.255643      3.041607
  C      -1.751237      0.448825      3.176696
  C      -2.904464      0.718657      2.440687
  H      -3.837357      2.011656      0.997642
  H      -3.772717      0.081773      2.548850
  H      -1.848074      3.455373      0.746405
  H       0.253868      1.020400      3.612617
  H      -1.725623     -0.394291      3.853954
  C       0.453087      3.255313      1.986503
  N       1.557046      3.271459      2.800626
  H       1.620162      2.636451      3.586580
  H       2.051185      4.147548      2.921417
  H       0.267945      4.177904      1.450636
  H       1.198252      2.307654     -0.345298
  Cu      1.933504      2.471029      0.931076
>
18
Coordinates from ORCA-job orca Relaxed Surface Scan Step 33 E -1967.138514527757
  C      -2.942637      1.804479      1.569714
  C      -1.828603      2.613992      1.426792