18
Properties=species:S:1:pos:R:3 Coordinates=T from=T ORCA-job=T orca=T E=T -1967.143571675743=T energy=-1967.143571675743 pbc="F F F"
C       -2.98857959       1.81929963       1.60533828
C       -1.90010753       2.66630771       1.50433084
C       -0.72771057       2.40011603       2.23558619
C       -0.66712469       1.26633419       3.06795671
C       -1.76003724       0.42928602       3.16400429
C       -2.91923827       0.70184357       2.43297539
H       -3.88909668       2.02560647       1.04322103
H       -3.76974649       0.03732115       2.51228329
H       -1.93972891       3.53684329       0.86221347
H        0.22537904       1.03630425       3.63471741
H       -1.71759178      -0.44054565       3.80528657
C        0.35230182       3.32765461       2.08305884
N        1.52876216       3.28733933       2.74896260
H        1.67955952       2.61608204       3.49475286
H        2.06505561       4.14506367       2.83310168
H        0.16971718       4.24080815       1.52885594
H        1.76745285       2.03958344      -0.53767489
Cu       1.91319359       2.49921210       0.89406951
18
Properties=species:S:1:pos:R:3 Coordinates=T from=T ORCA-job=T orca=T E=T -1967.143576809622=T energy=-1967.143576809622 pbc="F F F"
C       -2.98662994       1.81835915       1.60363629
C       -1.89676350       2.66338033       1.50050414
C       -0.72504392       2.39744742       2.23261954
C       -0.66601277       1.26532760       3.06705446
C       -1.76033290       0.43012326       3.16527310
C       -2.91926519       0.70284534       2.43406280
H       -3.88683098       2.02495603       1.04110565
H       -3.77094211       0.04004809       2.51518359
H       -1.93517656       3.53249979       0.85638364
H        0.22613122       1.03487504       3.63423448
H       -1.71892671      -0.43826985       3.80858426
C        0.35618251       3.32444964       2.07967751
N        1.53031650       3.28655362       2.75146141
H        1.67826933       2.61591383       3.49825325
H        2.06399850       4.14552947       2.83846177
H        0.17274178       4.23831662       1.52693149
H        1.74741052       2.05049137      -0.53607090
Cu       1.91333423       2.50161325       0.89568351
18
Properties=species:S:1:pos:R:3 Coordinates=T from=T ORCA-job=T orca=T E=T -1967.143560767055=T energy=-1967.143560767055 pbc="F F F"
C       -2.98422818       1.81731417       1.60142284
C       -1.89381187       2.66167857       1.49792088
C       -0.72289031       2.39633130       2.23122598
C       -0.66529979       1.26578318       3.06759169
C       -1.76012071       0.43108124       3.16618912
C       -2.91819737       0.70295468       2.43349699
H       -3.88382415       2.02351619       1.03775640
H       -3.77021227       0.04061469       2.51480685
H       -1.93123811       3.52968763       0.85223691
H        0.22626474       1.03573922       3.63586906
H       -1.71958507      -0.43628145       3.81095828
C        0.35980930       3.32238531       2.07731788
N        1.53208231       3.28558383       2.75354387
H        1.67739131       2.61578003       3.50152927
H        2.06486827       4.14491728       2.84200284
H        0.17674328       4.23682395       1.52541979
H        1.72365168       2.05873799      -0.53326724
Cu       1.91105694       2.50181220       0.89701860
18
Properties=species:S:1:pos:R:3 Coordinates=T from=T ORCA-job=T orca=T E=T -1967.143541968126=T energy=-1967.143541968126 pbc="F F F"
C       -2.98184237       1.81607849       1.59915090
C       -1.89001425       2.65844021       1.49369762
C       -0.72003750       2.39359160       2.22839825
C       -0.66415046       1.26479782       3.06695907
C       -1.76042288       0.43204146       3.16765222
C       -2.91806198       0.70399128       2.43445617
H       -3.88097412       2.02240485       1.03478748
H       -3.77131063       0.04346029       2.51758606
H       -1.92607981       3.52491734       0.84586612
H        0.22680217       1.03469418       3.63619095
H       -1.72123427      -0.43364324       3.81475595
C        0.36365112       3.31938337       2.07455159
N        1.53373748       3.28471438       2.75637816
H        1.67653951       2.61537107       3.50515218
H        2.06439913       4.14500803       2.84743682
H        0.17971532       4.23461314       1.52423540
H        1.70135318       2.07057025      -0.53221723
Cu       1.91039036       2.50402549       0.89800228
18
Properties=species:S:1:pos:R:3 Coordinates=T from=T ORCA-job=T orca=T E=T -1967.143510764330=T energy=-1967.14351076433 pbc="F F F"
C       -2.97939446       1.81515683       1.59694434
C       -1.88775576       2.65800332       1.49260470
C       -0.71859797       2.39393340       2.22857201
C       -0.66394869       1.26651651       3.06871709
C       -1.75994748       0.43302056       3.16820993
C       -2.91627162       0.70326657       2.43254393
H       -3.87770615       2.02066605       1.03093858
H       -3.76903777       0.04194084       2.51420593
H       -1.92313814       3.52377115       0.84378124
H        0.22623805       1.03724807       3.63950287
H       -1.72125854      -0.43210416       3.81612166
C        0.36719857       3.31791558       2.07251065
N        1.53577284       3.28362514       2.75763935
H        1.67598492       2.61536259       3.50777084
H        2.06636270       4.14386413       2.84901317
H        0.18422412       4.23360890       1.52270283
H        1.67649804       2.07642519      -0.52780880
Cu       1.90723731       2.50223932       0.89906968
18
Properties=species:S:1:pos:R:3 Coordinates=T from=T ORCA-job=T orca=T E=T -1967.143424127905=T energy=-1967.143424127905 pbc="F F F"
C       -2.97719442       1.81387963       1.59481417
C       -1.88450104       2.65527231       1.48910866
C       -0.71615533       2.39177417       2.22627870
C       -0.66318892       1.26624506       3.06874490
C       -1.76029201       0.43413493       3.16975549
C       -2.91597971       0.70393962       2.43313750
H       -3.87492198       2.01913130       1.02777114
H       -3.76967566       0.04399048       2.51616866
H       -1.91858336       3.51945682       0.83809925
H        0.22648976       1.03702930       3.64036181
H       -1.72276031      -0.42949918       3.81973740
C        0.37083839       3.31524636       2.06976235
N        1.53740316       3.28226959       2.75954418
H        1.67518468       2.61415631       3.51014011
H        2.06617196       4.14327826       2.85341805
H        0.18733887       4.23202449       1.52197834
H        1.65562491       2.08818172      -0.52536016
Cu       1.90666099       2.50394881       0.89957947
18
Properties=species:S:1:pos:R:3 Coordinates=T from=T ORCA-job=T orca=T E=T -1967.143379117791=T energy=-1967.143379117791 pbc="F F F"
C       -2.97469574       1.81273443       1.59243773
C       -1.88140548       2.65337569       1.48637689
C       -0.71402809       2.39059180       2.22505621
C       -0.66255805       1.26665512       3.06944766
C       -1.76024534       0.43515512       3.17084972
C       -2.91498063       0.70408799       2.43259767
H       -3.87173852       2.01759302       1.02415356
H       -3.76903006       0.04460619       2.51570419
H       -1.91443162       3.51641927       0.83378951
H        0.22629416       1.03795518       3.64257468
H       -1.72370767      -0.42728304       3.82248763
C        0.37449081       3.31298398       2.06750389
N        1.53940695       3.28118250       2.76152509
H        1.67475070       2.61383438       3.51315197
H        2.06708234       4.14262547       2.85692098
H        0.19090294       4.23033724       1.52071708
H        1.63149375       2.09755035      -0.52253270
Cu       1.90485955       2.50405528       0.90027824
18
Properties=species:S:1:pos:R:3 Coordinates=T from=T ORCA-job=T orca=T E=T -1967.143318810032=T energy=-1967.143318810032 pbc="F F F"
C       -2.97238379       1.81149585       1.59021936
C       -1.87822872       2.65096141       1.48318232
C       -0.71171148       2.38882072       2.22315855
C       -0.66182733       1.26665518       3.06969349
C       -1.76041594       0.43623999       3.17218865
C       -2.91441314       0.70456860       2.43276661
H       -3.86880107       2.01601162       1.02080098
H       -3.76918786       0.04615024       2.51680142
H       -1.91004273       3.51255755       0.82861176
H        0.22644999       1.03815609       3.64380600
H       -1.72494736      -0.42483755       3.82569757
C        0.37807391       3.31057549       2.06503048
N        1.54107333       3.27994496       2.76347216
H        1.67401973       2.61300815       3.51578116
H        2.06733060       4.14195476       2.86085841
H        0.19428168       4.22879536       1.51980123
H        1.60929089       2.10848495      -0.51956000
Cu       1.90389928       2.50491665       0.90072985
18
Properties=species:S:1:pos:R:3 Coordinates=T from=T ORCA-job=T orca=T E=T -1967.143259555137=T energy=-1967.143259555137 pbc="F F F"
C       -2.97011128       1.81046949       1.58810081
C       -1.87528164       2.64904654       1.48046028
C       -0.70958918       2.38749218       2.22166857
C       -0.66110232       1.26685291       3.07001529
C       -1.76035512       0.43717706       3.17314721
C       -2.91357901       0.70483792       2.43245959
H       -3.86595687       2.01470377       1.01766972
H       -3.76880200       0.04704467       2.51683436
H       -1.90608062       3.50950442       0.82433450
H        0.22650810       1.03868377       3.64531056
H       -1.72580184      -0.42275724       3.82822282
C        0.38163637       3.30828038       2.06257067
N        1.54283310       3.27898805       2.76538486
H        1.67332215       2.61284605       3.51873028
H        2.06788725       4.14148930       2.86423047
H        0.19767307       4.22707408       1.51837548
H        1.58646653       2.11783168      -0.51588644
Cu       1.90279330       2.50489497       0.90141097
18
Properties=species:S:1:pos:R:3 Coordinates=T from=T ORCA-job=T orca=T E=T -1967.143181008595=T energy=-1967.143181008595 pbc="F F F"
C       -2.96793752       1.80939837       1.58607139
C       -1.87231444       2.64689654       1.47753267
C       -0.70738027       2.38589123       2.21983407
C       -0.66030916       1.26685997       3.07008128
C       -1.76037676       0.43815690       3.17420995
C       -2.91294829       0.70527295       2.43250438
H       -3.86323713       2.01335957       1.01466389
H       -3.76879728       0.04839954       2.51765685
H       -1.90204842       3.50606350       0.81965548
H        0.22680962       1.03884810       3.64621339
H       -1.72676188      -0.42056467       3.83093534
C        0.38514530       3.30596818       2.06002034
N        1.54438839       3.27795446       2.76725957
H        1.67240017       2.61243492       3.52147479
H        2.06809943       4.14099683       2.86782347
H        0.20102245       4.22546745       1.51710618
H        1.56458352       2.12785665      -0.51198345
Cu       1.90212226       2.50519951       0.90198041
18
Properties=species:S:1:pos:R:3 Coordinates=T from=T ORCA-job=T orca=T E=T -1967.143163210290=T energy=-1967.14316321029 pbc="F F F"
C       -2.96576819       1.80840276       1.58405573
C       -1.86945165       2.64497137       1.47483033
C       -0.70528509       2.38451894       2.21825625
C       -0.65956508       1.26699590       3.07027393
C       -1.76032757       0.43908370       3.17513960
C       -2.91219712       0.70559347       2.43230764
H       -3.86052356       2.01209354       1.01168388
H       -3.76852659       0.04940661       2.51791201
H       -1.89818287       3.50296493       0.81536664
H        0.22696207       1.03923592       3.64743696
H       -1.72759509      -0.41851409       3.83339200
C        0.38863633       3.30369392       2.05750757
N        1.54604911       3.27700439       2.76905713
H        1.67160823       2.61225131       3.52425998
H        2.06852582       4.14054553       2.87110058
H        0.20430196       4.22378530       1.51568870
H        1.54239263       2.13734093      -0.50773938
Cu       1.90140666       2.50508557       0.90251046
18
Properties=species:S:1:pos:R:3 Coordinates=T from=T ORCA-job=T orca=T E=T -1967.143043733668=T energy=-1967.143043733668 pbc="F F F"
C       -2.96367227       1.80730043       1.58208098
C       -1.86649274       2.64266228       1.47175042
C       -0.70306088       2.38276595       2.21622720
C       -0.65874124       1.26690127       3.07017905
C       -1.76039623       0.44009538       3.17626597
C       -2.91167374       0.70610961       2.43254318
H       -3.85793786       2.01075793       1.00883468
H       -3.76869330       0.05094866       2.51909083
H       -1.89415860       3.49932459       0.81050276
H        0.22728606       1.03933744       3.64820015
H       -1.72862385      -0.41618685       3.83629233
C        0.39213811       3.30129757       2.05485975
N        1.54751167       3.27586657       2.77088472
H        1.67055306       2.61162959       3.52686224
H        2.06852231       4.13999690       2.87483028
H        0.20755230       4.22217522       1.51448889
H        1.52112144       2.14801129      -0.50364611
Cu       1.90122577       2.50546617       0.90279268
18
Properties=species:S:1:pos:R:3 Coordinates=T from=T ORCA-job=T orca=T E=T -1967.142894754436=T energy=-1967.142894754436 pbc="F F F"
C       -2.96153671       1.80643260       1.58013033
C       -1.86386171       2.64116999       1.46953398
C       -0.70115698       2.38179509       2.21506980
C       -0.65807561       1.26727146       3.07056387
C       -1.76022315       0.44093669       3.17695481
C       -2.91074051       0.70624504       2.43197528
H       -3.85522312       2.00955055       1.00585066
H       -3.76804586       0.05146556       2.51855287
H       -1.89062682       3.49681415       0.80691469
H        0.22737201       1.03996776       3.64959982
H       -1.72920446      -0.41443255       3.83820688
C        0.39552082       3.29922254       2.05247468
N        1.54920626       3.27506686       2.77246537
H        1.66984973       2.61184305       3.52960220
H        2.06923806       4.13957776       2.87739233
H        0.21086485       4.22050556       1.51285341
H        1.49872555       2.15645951      -0.49841866
Cu       1.90037763       2.50456837       0.90331767
18
Properties=species:S:1:pos:R:3 Coordinates=T from=T ORCA-job=T orca=T E=T -1967.142798296545=T energy=-1967.142798296545 pbc="F F F"
C       -2.95991091       1.80564590       1.57829161
C       -1.86190165       2.63992961       1.46739442
C       -0.69962439       2.38090706       2.21365040
C       -0.65741986       1.26738366       3.07041607
C       -1.75993439       0.44152672       3.17719451
C       -2.90996797       0.70637363       2.43136452
H       -3.85323795       2.00846582       1.00333699
H       -3.76757114       0.05202376       2.51827634
H       -1.88804709       3.49485871       0.80382764
H        0.22763428       1.04046633       3.65020027
H       -1.72954835      -0.41308596       3.83946037
C        0.39751708       3.29798572       2.05085009
N        1.55086281       3.27437377       2.77310416
H        1.67086697       2.61176291       3.53082476
H        2.07085667       4.13884839       2.87813738
H        0.21346556       4.21924592       1.51103039
H        1.48019176       2.16367378      -0.48910600
Cu       1.89822856       2.50407428       0.90478609
18
Properties=species:S:1:pos:R:3 Coordinates=T from=T ORCA-job=T orca=T E=T -1967.142702048490=T energy=-1967.14270204849 pbc="F F F"
C       -2.95803008       1.80537676       1.57723495
C       -1.85871703       2.63778411       1.46459910
C       -0.69700830       2.37871148       2.21130417
C       -0.65605552       1.26653020       3.06944990
C       -1.75980348       0.44217029       3.17782651
C       -2.90967145       0.70739880       2.43210927
H       -3.85105933       2.00858146       1.00193731
H       -3.76820153       0.05441577       2.52017208
H       -1.88373487       3.49132877       0.79918269
H        0.22899728       1.03836456       3.64878096
H       -1.73002916      -0.41165341       3.84115326
C        0.40219580       3.29436550       2.04669975
N        1.55196784       3.27449553       2.77618233
H        1.66742772       2.61412434       3.53640756
H        2.06880043       4.14046990       2.88338951
H        0.21653044       4.21595644       1.50800047
H        1.45785930       2.17308337      -0.48697856
Cu       1.90099194       2.50295612       0.90558874
18
Properties=species:S:1:pos:R:3 Coordinates=T from=T ORCA-job=T orca=T E=T -1967.142563133649=T energy=-1967.142563133649 pbc="F F F"
C       -2.95598706       1.80377740       1.57510850
C       -1.85595584       2.63517650       1.46127748
C       -0.69496721       2.37705549       2.20904861
C       -0.65543674       1.26692737       3.06956395
C       -1.75995231       0.44355383       3.17942173
C       -2.90912797       0.70771007       2.43250711
H       -3.84852741       2.00641706       0.99882347
H       -3.76823045       0.05563725       2.52165081
H       -1.87999786       3.48721096       0.79388776
H        0.22901363       1.03976231       3.65023465
H       -1.73123765      -0.40848700       3.84510083
C        0.40557568       3.29230572       2.04415720
N        1.55295842       3.27237466       2.77775388
H        1.66566628       2.61176411       3.53810065
H        2.06926666       4.13836484       2.88698214
H        0.22056749       4.21511976       1.50738453
H        1.43768957       2.18672889      -0.48279068
Cu       1.90114277       2.50306080       0.90482739
18
Properties=species:S:1:pos:R:3 Coordinates=T from=T ORCA-job=T orca=T E=T -1967.142405652061=T energy=-1967.142405652061 pbc="F F F"
C       -2.95445313       1.80304264       1.57337095
C       -1.85414143       2.63406766       1.45932465
C       -0.69351676       2.37624647       2.20771200
C       -0.65483270       1.26709753       3.06945645
C       -1.75967031       0.44411502       3.17960235
C       -2.90836443       0.70779191       2.43185105
H       -3.84665021       2.00538444       0.99643754
H       -3.76770779       0.05606819       2.52123017
H       -1.87761410       3.48543661       0.79106146
H        0.22921207       1.04033322       3.65090041
H       -1.73154219      -0.40722232       3.84621317
C        0.40755231       3.29101980       2.04241617
N        1.55458451       3.27166612       2.77820270
H        1.66662345       2.61174329       3.53916669
H        2.07082826       4.13763121       2.88742463
H        0.22314268       4.21379740       1.50543990
H        1.41986068       2.19389764      -0.47297241
Cu       1.89914908       2.50234317       0.90620213
18
Properties=species:S:1:pos:R:3 Coordinates=T from=T ORCA-job=T orca=T E=T -1967.142329627138=T energy=-1967.142329627138 pbc="F F F"
C       -2.95303458       1.80258919       1.57260282
C       -1.85130465       2.63149794       1.45616292
C       -0.69102934       2.37366247       2.20465283
C       -0.65348631       1.26609394       3.06801235
C       -1.75971025       0.44493704       3.18055931
C       -2.90845016       0.70895421       2.43326842
H       -3.84515706       2.00534728       0.99568054
H       -3.76885653       0.05888886       2.52444206
H       -1.87379860       3.48137946       0.78595536
H        0.23058545       1.03834843       3.64907242
H       -1.73220442      -0.40519895       3.84874347
C        0.41207133       3.28716963       2.03774455
N        1.55528291       3.27106143       2.78076294
H        1.66262469       2.61275537       3.54369055
H        2.06827196       4.13852122       2.89272406
H        0.22591677       4.21070379       1.50269662
H        1.40175186       2.20594685      -0.47034527
Cu       1.90298693       2.50180184       0.90661404
18
Properties=species:S:1:pos:R:3 Coordinates=T from=T ORCA-job=T orca=T E=T -1967.142085810974=T energy=-1967.142085810974 pbc="F F F"
C       -2.95159317       1.80181262       1.57097054
C       -1.84958813       2.63035139       1.45418580
C       -0.68958989       2.37283239       2.20312230
C       -0.65286313       1.26630838       3.06776190
C       -1.75939737       0.44554107       3.18076198
C       -2.90771217       0.70901844       2.43272575
H       -3.84344386       2.00426750       0.99350609
H       -3.76835389       0.05930769       2.52424553
H       -1.87158459       3.47956348       0.78310975
H        0.23087709       1.03912229       3.64954285
H       -1.73245188      -0.40382152       3.84996085
C        0.41408491       3.28592962       2.03584864
N        1.55667942       3.27017160       2.78114603
H        1.66306688       2.61247743       3.54465117
H        2.06966890       4.13754766       2.89325357
H        0.22884646       4.20954316       1.50069025
H        1.38461013       2.21348850      -0.46038369
Cu       1.90120428       2.50099830       0.90794068
18
Properties=species:S:1:pos:R:3 Coordinates=T from=T ORCA-job=T orca=T E=T -1967.141909699797=T energy=-1967.141909699797 pbc="F F F"
C       -2.95112228       1.80252765       1.57165604
C       -1.84763291       2.62879581       1.45182401
C       -0.68712819       2.37029080       2.19916997
C       -0.65064560       1.26439683       3.06421430
C       -1.75850571       0.44552093       3.18010984
C       -2.90784009       0.71045884       2.43437070
H       -3.84363017       2.00620777       0.99561883
H       -3.76954543       0.06247968       2.52810463
H       -1.86935883       3.47724364       0.77975105
H        0.23413729       1.03530369       3.64371269
H       -1.73142144      -0.40354864       3.84969148
C        0.41836362       3.28235040       2.03037290
N        1.55584568       3.27128423       2.78446780
H        1.65639184       2.61692301       3.55152955
H        2.06593411       4.14012331       2.89778253
H        0.23243931       4.20553861       1.49476046
H        1.36953107       2.22089991      -0.45494970
Cu       1.90664772       2.49766354       0.91085293
18
Properties=species:S:1:pos:R:3 Coordinates=T from=T ORCA-job=T orca=T E=T -1967.141778735101=T energy=-1967.141778735101 pbc="F F F"
C       -2.94938756       1.80120014       1.56993040
C       -1.84514970       2.62635412       1.44880872
C       -0.68528825       2.36867200       2.19705463
C       -0.65006437       1.26465979       3.06422717
C       -1.75866700       0.44673769       3.18151739
C       -2.90747138       0.71087314       2.43491615
H       -3.84149022       2.00445966       0.99309590
H       -3.76973070       0.06378409       2.52967574
H       -1.86595892       3.47332947       0.77483382
H        0.23429561       1.03613955       3.64462260
H       -1.73244264      -0.40083651       3.85304090
C        0.42164345       3.28010390       2.02750257
N        1.55671726       3.26942304       2.78574252
H        1.65447491       2.61517526       3.55312184
H        2.06611637       4.13836888       2.90068657
H        0.23590993       4.20437576       1.49378315
H        1.35138224       2.23441987      -0.44962389
Cu       1.90757098       2.49722013       0.91010382
18
Properties=species:S:1:pos:R:3 Coordinates=T from=T ORCA-job=T orca=T E=T -1967.141511896675=T energy=-1967.141511896675 pbc="F F F"
C       -2.94810037       1.80058718       1.56844788
C       -1.84354642       2.62528696       1.44689344
C       -0.68390341       2.36779638       2.19548177
C       -0.64939164       1.26470446       3.06377397
C       -1.75832605       0.44721768       3.18153655
C       -2.90681601       0.71100749       2.43440769
H       -3.84000402       2.00367360       0.99123236
H       -3.76934449       0.06433596       2.52957614
H       -1.86390930       3.47167447       0.77216385
H        0.23468336       1.03653160       3.64473139
H       -1.73257952      -0.39969085       3.85392294
C        0.42354235       3.27877470       2.02551512
N        1.55812497       3.26878486       2.78610093
H        1.65508496       2.61532773       3.55418204
H        2.06739608       4.13775093       2.90100223
H        0.23848283       4.20296549       1.49148843
H        1.33503895       2.24144919      -0.43898376
Cu       1.90602773       2.49628217       0.91156704
18
Properties=species:S:1:pos:R:3 Coordinates=T from=T ORCA-job=T orca=T E=T -1967.141296720002=T energy=-1967.141296720002 pbc="F F F"
C       -2.94795074       1.80162709       1.56950616
C       -1.84195769       2.62407768       1.44474534
C       -0.68154019       2.36528915       2.19124918
C       -0.64700211       1.26258277       3.05965529
C       -1.75721673       0.44701749       3.18049757
C       -2.90696656       0.71254864       2.43611082
H       -3.84071545       2.00612168       0.99410276
H       -3.77055420       0.06764169       2.53361805
H       -1.86231910       3.46993367       0.76933466
H        0.23832013       1.03233425       3.63794005
H       -1.73112106      -0.39975592       3.85305487
C        0.42762269       3.27521185       2.01981261
N        1.55704029       3.27019888       2.78922112
H        1.64814230       2.62012005       3.56079358
H        2.06317124       4.14074701       2.90536152
H        0.24151638       4.19880863       1.48517246
H        1.32186323       2.24721816      -0.43204131
Cu       1.91212757       2.49273723       0.91490526
18
Properties=species:S:1:pos:R:3 Coordinates=T from=T ORCA-job=T orca=T E=T -1967.141075620314=T energy=-1967.141075620314 pbc="F F F"
C       -2.94715690       1.80125293       1.56908358
C       -1.84029511       2.62233549       1.44240648
C       -0.67982545       2.36355019       2.18843220
C       -0.64585917       1.26206785       3.05804889
C       -1.75686869       0.44760117       3.18079815
C       -2.90686918       0.71323611       2.43706977
H       -3.84010462       2.00603257       0.99403631
H       -3.77105982       0.06936015       2.53603624
H       -1.86022885       3.46720787       0.76571972
H        0.23974983       1.03153193       3.63581611
H       -1.73100647      -0.39836980       3.85439019
C        0.43081282       3.27278397       2.01584474
N        1.55692246       3.26950543       2.79057466
H        1.64443455       2.62058296       3.56340966
H        2.06177438       4.14055625       2.90786313
H        0.24511342       4.19690239       1.48206465
H        1.30814217       2.25736641      -0.42453335
Cu       1.91478463       2.49095613       0.91597887
18
Properties=species:S:1:pos:R:3 Coordinates=T from=T ORCA-job=T orca=T E=T -1967.140831381088=T energy=-1967.140831381088 pbc="F F F"
C       -2.94592066       1.80067411       1.56764769
C       -1.83874830       2.62129780       1.44052754
C       -0.67848924       2.36270305       2.18688051
C       -0.64519284       1.26209291       3.05755542
C       -1.75651801       0.44805074       3.18076455
C       -2.90623053       0.71337613       2.43655565
H       -3.83868789       2.00530563       0.99226040
H       -3.77067748       0.06990179       2.53590948
H       -1.85827871       3.46562149       0.76315097
H        0.24015128       1.03190058       3.63585611
H       -1.73111769      -0.39727488       3.85519130
C        0.43266236       3.27146474       2.01384332
N        1.55832418       3.26889823       2.79085017
H        1.64505719       2.62079319       3.56439190
H        2.06304959       4.13997788       2.90803999
H        0.24759245       4.19548278       1.47975103
H        1.29217261       2.26424578      -0.41349618
Cu       1.91331170       2.48994807       0.91736016
18
Properties=species:S:1:pos:R:3 Coordinates=T from=T ORCA-job=T orca=T E=T -1967.140585469394=T energy=-1967.140585469394 pbc="F F F"
C       -2.94592193       1.80197022       1.56896089
C       -1.83737557       2.62041336       1.43864160
C       -0.67620706       2.36031032       2.18259512
C       -0.64269361       1.25988689       3.05313127
C       -1.75520672       0.44769430       3.17939507
C       -2.90630381       0.71492795       2.43817860
H       -3.83966649       2.00815121       0.99562644
H       -3.77173754       0.07314224       2.53981977
H       -1.85708861       3.46440288       0.76083718
H        0.24401229       1.02760588       3.62856062
H       -1.72931753      -0.39768134       3.85375421
C        0.43665276       3.26801024       2.00808022
N        1.55697541       3.27061244       2.79386776
H        1.63772268       2.62600282       3.57087941
H        2.05850650       4.14329098       2.91217547
H        0.25045129       4.19129303       1.47317109
H        1.27970734       2.26859536      -0.40551745
Cu       1.91995060       2.48583123       0.92088273
18
Properties=species:S:1:pos:R:3 Coordinates=T from=T ORCA-job=T orca=T E=T -1967.140248614270=T energy=-1967.14024861427 pbc="F F F"
C       -2.94516481       1.80173889       1.56860504
C       -1.83590456       2.61904215       1.43667970
C       -0.67461539       2.35887175       2.18005561
C       -0.64155706       1.25949830       3.05157204
C       -1.75473826       0.44818388       3.17945136
C       -2.90606619       0.71548365       2.43885352
H       -3.83908905       2.00821723       0.99563027
H       -3.77194755       0.07448904       2.54164341
H       -1.85529898       3.46222190       0.75782977
H        0.24543537       1.02695283       3.62649625
H       -1.72897092      -0.39657491       3.85460440
C        0.43976306       3.26578464       2.00423386
N        1.55677759       3.27013950       2.79504588
H        1.63405671       2.62673866       3.57329674
H        2.05717101       4.14327209       2.91417523
H        0.25406246       4.18949998       1.47000861
H        1.26593774       2.27740571      -0.39705065
Cu       1.92260881       2.48349474       0.92190898
18