18
Properties=species:S:1:pos:R:3 energy=-1967.19620164574 pbc="F F F"
C       -1.92570900      -0.56245400      -0.99202500
C       -0.83295700       0.29398800      -1.10141400
C        0.33391900       0.03962200      -0.38796300
C        0.39803200      -1.09776600       0.43257900
C       -0.69915800      -1.94777500       0.54944200
C       -1.86488400      -1.67574400      -0.16092800
H       -2.82827700      -0.35522800      -1.55259700
H       -2.71763600      -2.33663300      -0.07569600
H       -0.88977300       1.16741500      -1.73982100
H        1.33010000      -1.34864100       0.93269600
H       -0.63488300      -2.82745700       1.17674500
C        1.47675600       1.01980300      -0.37785200
N        1.37340000       1.86406400       0.85412000
H        1.46924800       1.64639000      -1.27015200
H        2.43010800       0.49546200      -0.32883900
H        2.27171800       2.28342900       1.07771000
H        0.72960800       2.63436700       0.68880000
Cu       0.58038500       0.70715900       2.27519500
18
Properties=species:S:1:pos:R:3 energy=-1967.19619750638 pbc="F F F"
C       -1.92541300      -0.56712800      -0.99916300
C       -0.83451200       0.29214600      -1.10559400
C        0.32958000       0.04317500      -0.38588200
C        0.39232500      -1.09132200       0.43896200
C       -0.70328700      -1.94350400       0.55360700
C       -1.86595100      -1.67735300      -0.16394500
H       -2.82525600      -0.36459400      -1.56576800
H       -2.71708200      -2.34070100      -0.08158300
H       -0.89062100       1.16293900      -1.74762900
H        1.32339700      -1.34053900       0.94224900
H       -0.63960400      -2.82089000       1.18419400
C        1.47259900       1.02331400      -0.37864700
N        1.38092700       1.86154900       0.85815400
H        1.45757900       1.65427700      -1.26777500
H        2.42628000       0.49851000      -0.34097700
H        2.28081200       2.28184700       1.07350600
H        0.73357500       2.63114000       0.70354300
Cu       0.60465300       0.69713400       2.28275000
18
Properties=species:S:1:pos:R:3 energy=-1967.196183378924 pbc="F F F"
C       -1.92530600      -0.57150800      -1.00633700
C       -0.83591900       0.29023700      -1.10979400
C        0.32528000       0.04621300      -0.38440100
C        0.38672200      -1.08556100       0.44442100
C       -0.70741100      -1.93972300       0.55684500
C       -1.86710000      -1.67899800      -0.16731900
H       -2.82256500      -0.37332200      -1.57841000
H       -2.71679200      -2.34454900      -0.08757500
H       -0.89105300       1.15873600      -1.75520100
H        1.31657100      -1.33242500       0.95141400
H       -0.64465600      -2.81494500       1.19063600
C        1.46854700       1.02612100      -0.37926100
N        1.38759000       1.85864700       0.86202400
H        1.44701700       1.66148800      -1.26513200
H        2.42237500       0.50089200      -0.35177000
H        2.28841700       2.28154900       1.06829600
H        0.73570100       2.62646700       0.71770400
Cu       0.63258400       0.69068000       2.29385900
18
Properties=species:S:1:pos:R:3 energy=-1967.19616134287 pbc="F F F"
C       -1.92509200      -0.57579800      -1.01335000
C       -0.83732000       0.28842100      -1.11398100
C        0.32121200       0.04897100      -0.38272600
C        0.38110100      -1.08001400       0.44959900
C       -0.71153500      -1.93618100       0.55990900
C       -1.86838100      -1.68052600      -0.17084900
H       -2.81981200      -0.38170300      -1.59086800
H       -2.71662900      -2.34820700      -0.09359000
H       -0.89123900       1.15458800      -1.76246700
H        1.30970100      -1.32465800       0.96052500
H       -0.64988600      -2.80921900       1.19673200
C        1.46454300       1.02876600      -0.37973000
N        1.39403300       1.85582100       0.86574400
H        1.43675300       1.66835300      -1.26239100
H        2.41848800       0.50317600      -0.36206200
H        2.29538600       2.28214900       1.06257600
H        0.73709900       2.62126900       0.73160800
Cu       0.66157800       0.68479400       2.30531900
18
Properties=species:S:1:pos:R:3 energy=-1967.19612913983 pbc="F F F"
C       -1.92483700      -0.57973400      -1.02017700
C       -0.83846000       0.28664800      -1.11787300
C        0.31733600       0.05147700      -0.38103500
C        0.37559000      -1.07500100       0.45450900
C       -0.71572300      -1.93289500       0.56260600
C       -1.86970600      -1.68193800      -0.17439000
H       -2.81701300      -0.38943200      -1.60292300
H       -2.71669500      -2.35152200      -0.09957200
H       -0.89107500       1.15068600      -1.76929300
H        1.30284800      -1.31763500       0.96932200
H       -0.65532000      -2.80389800       1.20230400
C        1.46077100       1.03107800      -0.37997500
N        1.39995400       1.85319900       0.86918300
H        1.42718300       1.67453000      -1.25964000
H        2.41475300       0.50522500      -0.37137000
H        2.30120600       2.28426800       1.05613600
H        0.73711700       2.61530000       0.74495600
Cu       0.69206900       0.67964400       2.31723100
18
Properties=species:S:1:pos:R:3 energy=-1967.196085815972 pbc="F F F"
C       -1.92457600      -0.58319500      -1.02670800
C       -0.83929500       0.28497400      -1.12148200
C        0.31377800       0.05361200      -0.37940500
C        0.37033300      -1.07061300       0.45899000
C       -0.71994600      -1.92992100       0.56486000
C       -1.87109300      -1.68314700      -0.17786500
H       -2.81423000      -0.39627500      -1.61430900
H       -2.71706700      -2.35431200      -0.10536700
H       -0.89051900       1.14708600      -1.77562000
H        1.29613000      -1.31156300       0.97756100
H       -0.66086600      -2.79907700       1.20723400
C        1.45735100       1.03295100      -0.37997100
N        1.40509000       1.85084700       0.87226700
H        1.41868900       1.67979700      -1.25697600
H        2.41131100       0.50692000      -0.37929200
H        2.30544000       2.28815000       1.04903700
H        0.73535800       2.60845300       0.75748000
Cu       0.72411100       0.67531400       2.32956700
18
Properties=species:S:1:pos:R:3 energy=-1967.196032300124 pbc="F F F"
C       -1.92428700      -0.58618600      -1.03279600
C       -0.83996800       0.28347400      -1.12483800
C        0.31062100       0.05529500      -0.37781400
C        0.36528000      -1.06688300       0.46287900
C       -0.72402200      -1.92738900       0.56662100
C       -1.87261000      -1.68414200      -0.18139300
H       -2.81164300      -0.40211100      -1.62487200
H       -2.71772200      -2.35662100      -0.11100100
H       -0.88967600       1.14385500      -1.78132900
H        1.28959200      -1.30637200       0.98522100
H       -0.66640200      -2.79487600       1.21131600
C        1.45430100       1.03429900      -0.37971700
N        1.40933900       1.84879600       0.87494200
H        1.41150400       1.68397800      -1.25445600
H        2.40819800       0.50808200      -0.38558800
H        2.30799200       2.29370400       1.04138100
H        0.73186800       2.60086000       0.76896100
Cu       0.75763500       0.67223800       2.34248200
18
Properties=species:S:1:pos:R:3 energy=-1967.19596942093 pbc="F F F"
C       -1.92413400      -0.58869300      -1.03846700
C       -0.84053800       0.28215600      -1.12779300
C        0.30770300       0.05659100      -0.37632400
C        0.36050600      -1.06387200       0.46615500
C       -0.72796800      -1.92540500       0.56770200
C       -1.87412800      -1.68511300      -0.18500700
H       -2.80935100      -0.40695100      -1.63445200
H       -2.71856600      -2.35868200      -0.11664600
H       -0.88876300       1.14113500      -1.78625300
H        1.28315700      -1.30181700       0.99237600
H       -0.67177100      -2.79150200       1.21438100
C        1.45162000       1.03504900      -0.37919000
N        1.41276400       1.84708500       0.87718500
H        1.40568000       1.68698400      -1.25212600
H        2.40536100       0.50855600      -0.39021200
H        2.30909000       2.30050300       1.03332400
H        0.72713600       2.59289600       0.77920600
Cu       0.79220300       0.67107900       2.35614100
18
Properties=species:S:1:pos:R:3 energy=-1967.19589988308 pbc="F F F"
C       -1.92412300      -0.59083800      -1.04372400
C       -0.84116000       0.28104200      -1.13035500
C        0.30492300       0.05752200      -0.37488600
C        0.35594500      -1.06154400       0.46878600
C       -0.73172200      -1.92404200       0.56807900
C       -1.87565300      -1.68618500      -0.18882300
H       -2.80742500      -0.41094300      -1.64312000
H       -2.71949900      -2.36071200      -0.12245900
H       -0.88796000       1.13895100      -1.79031800
H        1.27674300      -1.29764000       0.99919100
H       -0.67690300      -2.78900000       1.21641300
C        1.44922500       1.03523700      -0.37841400
N        1.41557100       1.84571500       0.87903900
H        1.40102000       1.68890800      -1.24996100
H        2.40271600       0.50833600      -0.39337900
H        2.30912600       2.30803500       1.02501200
H        0.72175600       2.58489900       0.78825600
Cu       0.82741900       0.67225900       2.37066400
18
Properties=species:S:1:pos:R:3 energy=-1967.195826702556 pbc="F F F"
C       -1.92425500      -0.59274000      -1.04869000
C       -0.84187000       0.28008700      -1.13255100
C        0.30220600       0.05816400      -0.37345500
C        0.35152500      -1.05984800       0.47086300
C       -0.73534000      -1.92327100       0.56785100
C       -1.87716800      -1.68743500      -0.19286000
H       -2.80579300      -0.41432500      -1.65112300
H       -2.72048700      -2.36285200      -0.12852800
H       -0.88731700       1.13724200      -1.79359400
H        1.27024600      -1.29373600       1.00580700
H       -0.68186400      -2.78727500       1.21756600
C        1.44699900       1.03497000      -0.37742200
N        1.41799000       1.84461400       0.88058300
H        1.39714200       1.68999800      -1.24789400
H        2.40018400       0.50757700      -0.39547900
H        2.30849900       2.31595800       1.01653500
H        0.71616000       2.57706600       0.79638600
Cu       0.86314200       0.67580400       2.38600600
18
Properties=species:S:1:pos:R:3 energy=-1967.19575316461 pbc="F F F"
C       -1.92444800      -0.59451700      -1.05346800
C       -0.84266300       0.27923700      -1.13442800
C        0.29950000       0.05855300      -0.37190800
C        0.34716300      -1.05868000       0.47259200
C       -0.73891400      -1.92296200       0.56720300
C       -1.87873500      -1.68884600      -0.19713100
H       -2.80429000      -0.41733200      -1.65879200
H       -2.72152600      -2.36511100      -0.13489300
H       -0.88675500       1.13587700      -1.79621600
H        1.26363300      -1.29020100       1.01233300
H       -0.68680700      -2.78616900       1.21811000
C        1.44485700       1.03440900      -0.37625300
N        1.42024900       1.84377400       0.88191800
H        1.39359800       1.69054200      -1.24584300
H        2.39772400       0.50652100      -0.39695600
H        2.30746200       2.32415700       1.00788000
H        0.71056100       2.56939400       0.80399500
Cu       0.89939100       0.68135200       2.40185500
18
Properties=species:S:1:pos:R:3 energy=-1967.195681574047 pbc="F F F"
C       -1.92463200      -0.59621900      -1.05817300
C       -0.84343200       0.27843600      -1.13600100
C        0.29681600       0.05877400      -0.37011700
C        0.34279700      -1.05795100       0.47427500
C       -0.74257500      -1.92299400       0.56635600
C       -1.88035400      -1.69036400      -0.20153900
H       -2.80274400      -0.42011200      -1.66641200
H       -2.72264500      -2.36743900      -0.14155200
H       -0.88610800       1.13471100      -1.79832000
H        1.25695300      -1.28724000       1.01883000
H       -0.69191800      -2.78550000       1.21828000
C        1.44271600       1.03370800      -0.37494200
N        1.42250900       1.84316900       0.88312200
H        1.39000200       1.69078200      -1.24375000
H        2.39532500       0.50542200      -0.39820000
H        2.30616200       2.33272000       0.99898200
H        0.70496500       2.56174800       0.81146900
Cu       0.93616200       0.68834800       2.41769100
18
Properties=species:S:1:pos:R:3 energy=-1967.195611396018 pbc="F F F"
C       -1.92474600      -0.59788200      -1.06291300
C       -0.84405700       0.27759800      -1.13736800
C        0.29417200       0.05888200      -0.36804800
C        0.33843900      -1.05748800       0.47619300
C       -0.74641200      -1.92312300       0.56554900
C       -1.88203000      -1.69184900      -0.20597000
H       -2.80094500      -0.42282500      -1.67420400
H       -2.72388300      -2.36969500      -0.14836400
H       -0.88519400       1.13356100      -1.80021500
H        1.25027300      -1.28489900       1.02530800
H       -0.69733900      -2.78501100       1.21843200
C        1.44056600       1.03301700      -0.37353800
N        1.42486300       1.84269700       0.88430600
H        1.38604300       1.69101900      -1.24157300
H        2.39298700       0.50452400      -0.39959900
H        2.30459400       2.34170700       0.98983700
H        0.69927100       2.55386900       0.81924600
Cu       0.97339900       0.69589900       2.43292100
18
Properties=species:S:1:pos:R:3 energy=-1967.195539007486 pbc="F F F"
C       -1.92471800      -0.59957900      -1.06781400
C       -0.84445700       0.27663700      -1.13878400
C        0.29159800       0.05895400      -0.36582000
C        0.33407500      -1.05703600       0.47846100
C       -0.75046100      -1.92308100       0.56501400
C       -1.88377100      -1.69316300      -0.21029500
H       -2.79878700      -0.42566100      -1.68238200
H       -2.72526500      -2.37170200      -0.15508300
H       -0.88388900       1.13218500      -1.80233600
H        1.24366200      -1.28297700       1.03180100
H       -0.70315800      -2.78430400       1.21895100
C        1.43836800       1.03248900      -0.37214000
N        1.42731900       1.84216400       0.88562400
H        1.38154000       1.69157700      -1.23924900
H        2.39070100       0.50401500      -0.40149800
H        2.30267000       2.35105300       0.98054000
H        0.69336600       2.54540800       0.82777300
Cu       1.01120600       0.70302000       2.44723700
18
Properties=species:S:1:pos:R:3 energy=-1967.195459403463 pbc="F F F"
C       -1.92449600      -0.60138400      -1.07290400
C       -0.84464300       0.27551100      -1.14050800
C        0.28911000       0.05908400      -0.36364200
C        0.32969600      -1.05635600       0.48100000
C       -0.75464200      -1.92267600       0.56487900
C       -1.88556000      -1.69425200      -0.21440200
H       -2.79634200      -0.42876700      -1.69099300
H       -2.72674500      -2.37337300      -0.16144400
H       -0.88224100       1.13041500      -1.80502900
H        1.23717400      -1.28108800       1.03831600
H       -0.70927900      -2.78305600       1.22006800
C        1.43609600       1.03220600      -0.37083300
N        1.42982000       1.84139200       0.88718900
H        1.37654300       1.69267600      -1.23675100
H        2.38842600       0.50395200      -0.40403900
H        2.30038500       2.36041700       0.97137800
H        0.68735800       2.53631200       0.83719900
Cu       1.04934000       0.70898800       2.46051700
18
Properties=species:S:1:pos:R:3 energy=-1967.195370387402 pbc="F F F"
C       -1.92417900      -0.60329600      -1.07811400
C       -0.84472400       0.27424900      -1.14254100
C        0.28665600       0.05930100      -0.36162400
C        0.32530900      -1.05542300       0.48363100
C       -0.75885200      -1.92199300       0.56499200
C       -1.88734400      -1.69520500      -0.21833500
H       -2.79377100      -0.43210100      -1.69976300
H       -2.72825700      -2.37484900      -0.16745400
H       -0.88046000       1.12833700      -1.80824700
H        1.23071500      -1.27890100       1.04487700
H       -0.71546900      -2.78138700       1.22161200
C        1.43377400       1.03211800      -0.36959400
N        1.43228800       1.84041300       0.88898600
H        1.37135800       1.69418100      -1.23413600
H        2.38612200       0.50414800      -0.40694700
H        2.29783500       2.36948900       0.96254800
H        0.68150100       2.52692500       0.84718800
Cu       1.08749900       0.71399300       2.47292000
18
Properties=species:S:1:pos:R:3 energy=-1967.19527262514 pbc="F F F"
C       -1.92386900      -0.60523900      -1.08328400
C       -0.84482000       0.27294900      -1.14469900
C        0.28419900       0.05955300      -0.35973900
C        0.32088700      -1.05441800       0.48616100
C       -0.76300800      -1.92131600       0.56507000
C       -1.88911700      -1.69618000      -0.22222800
H       -2.79129200      -0.43543000      -1.70834600
H       -2.72975800      -2.37632000      -0.17331500
H       -0.87873600       1.12617000      -1.81164000
H        1.22414900      -1.27637000       1.05150100
H       -0.72152900      -2.77969800       1.22313600
C        1.43146400       1.03205600      -0.36831700
N        1.43462600       1.83942900       0.89089600
H        1.36638400       1.69570000      -1.23148400
H        2.38379100       0.50431000      -0.40969600
H        2.29505200       2.37826700       0.95402900
H        0.67590900       2.51764900       0.85719700
Cu       1.12566500       0.71888900       2.48475800
18
Properties=species:S:1:pos:R:3 energy=-1967.19516963288 pbc="F F F"
C       -1.92361800      -0.60714600      -1.08833000
C       -0.84496300       0.27167100      -1.14683800
C        0.28173400       0.05977500      -0.35793000
C        0.31640100      -1.05349700       0.48851100
C       -0.76711800      -1.92082800       0.56494800
C       -1.89089200      -1.69725400      -0.22616800
H       -2.78898600      -0.43858800      -1.71657500
H       -2.73125900      -2.37788100      -0.17918700
H       -0.87712500       1.12405800      -1.81495300
H        1.21734500      -1.27362400       1.05817800
H       -0.72739800      -2.77825700       1.22437000
C        1.42922400       1.03190200      -0.36691700
N        1.43678400       1.83857800       0.89283200
H        1.36183800       1.69697900      -1.22883600
H        2.38147900       0.50428000      -0.41195800
H        2.29196900       2.38693800       0.94572600
H        0.67049500       2.50860600       0.86693400
Cu       1.16408800       0.72428700       2.49619300
18
Properties=species:S:1:pos:R:3 energy=-1967.195065723567 pbc="F F F"
C       -1.92340200      -0.60900900      -1.09328600
C       -0.84513200       0.27042300      -1.14891900
C        0.27926400       0.05995600      -0.35614600
C        0.31180100      -1.05264900       0.49077600
C       -0.77123400      -1.92051200       0.56466100
C       -1.89267800      -1.69842300      -0.23019400
H       -2.78678500      -0.44157700      -1.72455000
H       -2.73275900      -2.37954200      -0.18516500
H       -0.87558000       1.12203900      -1.81811800
H        1.21018500      -1.27068800       1.06503600
H       -0.73316700      -2.77704900       1.22534700
C        1.42706500       1.03164400      -0.36539000
N        1.43879500       1.83785700       0.89477400
H        1.35766900       1.69800400      -1.22618900
H        2.37920700       0.50407000      -0.41375100
H        2.28848500       2.39571900       0.93753400
H        0.66510100       2.49960400       0.87649700
Cu       1.20316500       0.73013300       2.50708100
18
Properties=species:S:1:pos:R:3 energy=-1967.194963635769 pbc="F F F"
C       -1.92315600      -0.61086800      -1.09826600
C       -0.84527500       0.26918000      -1.15099400
C        0.27678100       0.06012400      -0.35434300
C        0.30704400      -1.05173300       0.49315800
C       -0.77543600      -1.92021800       0.56436200
C       -1.89446800      -1.69964000      -0.23431200
H       -2.78454000      -0.44452000      -1.73252800
H       -2.73424300      -2.38127100      -0.19130500
H       -0.87400000       1.12006300      -1.82121400
H        1.20261000      -1.26741200       1.07231700
H       -0.73902800      -2.77587500       1.22629500
C        1.42494800       1.03133800      -0.36378100
N        1.44074800       1.83715200       0.89674500
H        1.35364700       1.69891900      -1.22350500
H        2.37695200       0.50378100      -0.41532200
H        2.28449600       2.40478800       0.92935200
H        0.65958000       2.49026700       0.88623600
Cu       1.24334000       0.73592400       2.51710300
18
Properties=species:S:1:pos:R:3 energy=-1967.194863099429 pbc="F F F"
C       -1.92281300      -0.61278200      -1.10341200
C       -0.84533700       0.26789400      -1.15315900
C        0.27426600       0.06032000      -0.35249900
C        0.30210400      -1.05059700       0.49584500
C       -0.77980200      -1.91976100       0.56422600
C       -1.89626300      -1.70083500      -0.23850700
H       -2.78209400      -0.44758000      -1.74080800
H       -2.73570800      -2.38300900      -0.19761800
H       -0.87226300       1.11802500      -1.82441300
H        1.19465600      -1.26367200       1.08016800
H       -0.74519200      -2.77447200       1.22749500
C        1.42280900       1.03106300      -0.36214600
N        1.44272100       1.83632100       0.89880200
H        1.34949600       1.69992300      -1.22072200
H        2.37466700       0.50354700      -0.41697500
H        2.27989600       2.41424000       0.92113700
H        0.65382100       2.48020500       0.89656800
Cu       1.28503500       0.74116800       2.52601700
18
Properties=species:S:1:pos:R:3 energy=-1967.194761110298 pbc="F F F"
C       -1.92228100      -0.61483300      -1.10883800
C       -0.84530900       0.26649200      -1.15557000
C        0.27172600       0.06058600      -0.35060200
C        0.29692700      -1.04912100       0.49892800
C       -0.78436200      -1.91896300       0.56444000
C       -1.89811300      -1.70194300      -0.24275100
H       -2.77933500      -0.45094200      -1.74966900
H       -2.73715300      -2.38468400      -0.20405100
H       -0.87026500       1.11576600      -1.82795900
H        1.18642400      -1.25946400       1.08858900
H       -0.75183000      -2.77256400       1.22922100
C        1.42056200       1.03092700      -0.36054500
N        1.44475400       1.83522400       0.90102900
H        1.34495200       1.70125600      -1.21776900
H        2.37229200       0.50353500      -0.41901100
H        2.27464000       2.42401500       0.91297500
H        0.64783000       2.46917500       0.90786400
Cu       1.32854000       0.74553800       2.53372000
18
Properties=species:S:1:pos:R:3 energy=-1967.194654135052 pbc="F F F"
C       -1.92159400      -0.61712000      -1.11469500
C       -0.84510700       0.26489900      -1.15832800
C        0.26906500       0.06099000      -0.34874100
C        0.29155200      -1.04718700       0.50246300
C       -0.78924600      -1.91768700       0.56508400
C       -1.89995400      -1.70292800      -0.24694700
H       -2.77614100      -0.45484100      -1.75927200
H       -2.73860400      -2.38629200      -0.21048400
H       -0.86796300       1.11309600      -1.83215300
H        1.17795000      -1.25479800       1.09748100
H       -0.75898500      -2.76993200       1.23172400
C        1.41811700       1.03105700      -0.35902700
N        1.44690000       1.83377700       0.90351400
H        1.33974800       1.70320900      -1.21457700
H        2.36974800       0.50395900      -0.42175400
H        2.26888400       2.43379700       0.90512200
H        0.64182700       2.45720600       0.92038200
Cu       1.37380300       0.74879400       2.54020700
18
Properties=species:S:1:pos:R:3 energy=-1967.194540737254 pbc="F F F"
C       -1.92070000      -0.61974800      -1.12100700
C       -0.84478000       0.26305200      -1.16154900
C        0.26627200       0.06159600      -0.34693200
C        0.28590100      -1.04471900       0.50642300
C       -0.79441300      -1.91588300       0.56621800
C       -1.90181200      -1.70383000      -0.25108000
H       -2.77251000      -0.45944400      -1.76968700
H       -2.74001600      -2.38787000      -0.21682800
H       -0.86538600       1.10988400      -1.83716100
H        1.16921800      -1.24961200       1.10685200
H       -0.76660800      -2.76646500       1.23509900
C        1.41538500       1.03158300      -0.35765000
N        1.44924800       1.83193600       0.90631700
H        1.33367800       1.70600000      -1.21110100
H        2.36696000       0.50499100      -0.42547600
H        2.26295300       2.44319800       0.89783300
H        0.63618100       2.44453200       0.93420800
Cu       1.42043000       0.75079900       2.54552000
18
Properties=species:S:1:pos:R:3 energy=-1967.194421668048 pbc="F F F"
C       -1.91960100      -0.62278900      -1.12775700
C       -0.84434900       0.26093000      -1.16523900
C        0.26330300       0.06248600      -0.34518300
C        0.27996000      -1.04162200       0.51082800
C       -0.79980700      -1.91355000       0.56784100
C       -1.90361400      -1.70472800      -0.25513600
H       -2.76846800      -0.46484500      -1.78083800
H       -2.74129800      -2.38953500      -0.22305400
H       -0.86262400       1.10610100      -1.84300900
H        1.16009000      -1.24364900       1.11690100
H       -0.77455700      -2.76215200       1.23934500
C        1.41233400       1.03261100      -0.35646900
N        1.45198500       1.82968800       0.90943100
H        1.32660000       1.70977200      -1.20734800
H        2.36387200       0.50673200      -0.43043900
H        2.25726400       2.45190200       0.89125300
H        0.63132900       2.43141500       0.94931700
Cu       1.46758100       0.75123300       2.54955700
18
Properties=species:S:1:pos:R:3 energy=-1967.194297419123 pbc="F F F"
C       -1.91829400      -0.62621200      -1.13480600
C       -0.84388500       0.25859500      -1.16929900
C        0.26017900       0.06370000      -0.34343000
C        0.27373000      -1.03784600       0.51569000
C       -0.80528900      -1.91076800       0.56989000
C       -1.90528800      -1.70570700      -0.25916900
H       -2.76410200      -0.47095200      -1.79248400
H       -2.74231200      -2.39142700      -0.22922700
H       -0.85978600       1.10186300      -1.84949600
H        1.15041000      -1.23659900       1.12791800
H       -0.78264800      -2.75713700       1.24430000
C        1.40901100       1.03413400      -0.35552000
N        1.45526900       1.82709200       0.91276400
H        1.31858800       1.71444500      -1.20338900
H        2.36047800       0.50910900      -0.43667100
H        2.25208600       2.45984900       0.88532700
H        0.62754200       2.41804100       0.96549200
Cu       1.51431000       0.74982200       2.55211100
18
Properties=species:S:1:pos:R:3 energy=-1967.194168479018 pbc="F F F"
C       -1.91685100      -0.62985400      -1.14196800
C       -0.84340400       0.25617000      -1.17346900
C        0.25692700       0.06515500      -0.34158600
C        0.26725700      -1.03357700       0.52094200
C       -0.81079800      -1.90778000       0.57213200
C       -1.90679600      -1.70684000      -0.26326200
H       -2.75955400      -0.47741000      -1.80427800
H       -2.74303900      -2.39361600      -0.23553100
H       -0.85694400       1.09744500      -1.85617500
H        1.14007600      -1.22849800       1.13997000
H       -0.79075000      -2.75184100       1.24951300
C        1.40555100       1.03593800      -0.35470400
N        1.45902200       1.82432400       0.91615100
H        1.31005300       1.71957100      -1.19933000
H        2.35685800       0.51179800      -0.44367600
H        2.24723000       2.46738400       0.87974900
H        0.62465500       2.40447900       0.98227000
Cu       1.56050600       0.74715000       2.55325200
18
Properties=species:S:1:pos:R:3 energy=-1967.194035978415 pbc="F F F"
C       -1.91536600      -0.63346900      -1.14908900
C       -0.84290100       0.25378000      -1.17743900
C        0.25361700       0.06660400      -0.33951400
C        0.26058300      -1.02930500       0.52639200
C       -0.81638800      -1.90496400       0.57422400
C       -1.90826200      -1.70813100      -0.26755800
H       -2.75493900      -0.48372300      -1.81597400
H       -2.74368100      -2.39601800      -0.24220700
H       -0.85404900       1.09315500      -1.86251900
H        1.12912100      -1.22006600       1.15266800
H       -0.79893600      -2.74684400       1.25439200
C        1.40210900       1.03764900      -0.35378300
N        1.46297600       1.82163500       0.91946100
H        1.30151300       1.72448400      -1.19520200
H        2.35316800       0.51435800      -0.45063500
H        2.24203800       2.47522500       0.87398100
H        0.62210100       2.39056200       0.99922500
Cu       1.60729200       0.74506700       2.55357800
18
Properties=species:S:1:pos:R:3 energy=-1967.19389992211 pbc="F F F"
C       -1.91391100      -0.63686800      -1.15614800
C       -0.84231100       0.25146400      -1.18099600
C        0.25032300       0.06777300      -0.33711800
C        0.25378500      -1.02556300       0.53186000
C       -0.82222300      -1.90258900       0.57590700
C       -1.90987100      -1.70950400      -0.27213500
H       -2.75023200      -0.48954700      -1.82753800
H       -2.74454700      -2.39842700      -0.24938600
H       -0.85094500       1.08915300      -1.86821200
H        1.11774300      -1.21243600       1.16534400
H       -0.80744500      -2.74254300       1.25858500
C        1.39878300       1.03896900      -0.35252200
N        1.46688100       1.81919100       0.92268100