18
Properties=species:S:1:pos:R:3 energy=-1967.060275132297 pbc="F F F"
C       -2.78160000       1.62225000       1.41563000
C       -1.61854000       2.38835000       1.29308000
C       -0.56584000       2.24109000       2.21106000
C       -0.70074000       1.30521000       3.25809000
C       -1.86682000       0.54178000       3.37625000
C       -2.90589000       0.69993000       2.45665000
H       -3.58678000       1.74390000       0.70260000
H       -3.80681000       0.10737000       2.55029000
H       -1.53915000       3.09887000       0.47943000
H        0.08521000       1.15562000       3.98572000
H       -1.96431000      -0.17437000       4.18209000
C        0.66625000       3.09585000       2.02163000
N        1.69508000       2.84655000       3.02619000
H        1.35682000       3.19224000       3.95390000
H        2.53775000       3.40814000       2.76861000
H        0.37930000       4.17082000       2.04680000
H        0.58960000       3.50491000      -0.98443000
Cu       1.44893000       2.68595000       0.16945000
18
Properties=species:S:1:pos:R:3 energy=-1967.075506030574 pbc="F F F"
C       -2.78127300       1.64139000       1.41906600
C       -1.63041400       2.40439100       1.29531400
C       -0.57059900       2.25017600       2.20715500
C       -0.68652900       1.30310500       3.24004900
C       -1.84360800       0.54758000       3.36299400
C       -2.89030700       0.71156200       2.45336600
H       -3.59100700       1.76556700       0.71264200
H       -3.78726600       0.11349400       2.54903800
H       -1.55207100       3.12064800       0.48791400
H        0.11143100       1.15422900       3.95335600
H       -1.93168900      -0.17331400       4.16468400
C        0.62810300       3.09928400       2.04607800
N        1.67133400       2.85870700       3.00119200
H        1.36412400       3.15761500       3.92822200
H        2.47846000       3.42812800       2.75299300
H        0.35577900       4.16169200       1.98844900
H        0.62133200       3.45933000      -0.88740300
Cu       1.45665900       2.63087600       0.23792900
18
Properties=species:S:1:pos:R:3 energy=-1967.087032894865 pbc="F F F"
C       -2.78536600       1.65072000       1.41779700
C       -1.64664900       2.41696900       1.29531200
C       -0.58017300       2.26277500       2.20435800
C       -0.68443300       1.30686000       3.22924400
C       -1.83266400       0.55090500       3.35239800
C       -2.88259000       0.71489000       2.44800600
H       -3.59798500       1.77273900       0.71455900
H       -3.77484900       0.10969700       2.54378100
H       -1.56695200       3.13884700       0.49339100
H        0.12327700       1.16443300       3.93223300
H       -1.91400300      -0.17418000       4.15096500
C        0.59104500       3.10647700       2.06706000
N        1.65712800       2.87440500       2.95908100
H        1.40461700       3.11768000       3.91105700
H        2.44880000       3.45012600       2.70590300
H        0.33372400       4.15722800       1.93203200
H        0.65201700       3.42235800      -0.75492500
Cu       1.47751800       2.59152900       0.31078900
18
Properties=species:S:1:pos:R:3 energy=-1967.095802138282 pbc="F F F"
C       -2.80190300       1.65508200       1.42325700
C       -1.67029800       2.42748600       1.29859600
C       -0.59456500       2.27288400       2.19899500
C       -0.68791300       1.30632800       3.21645700
C       -1.83178800       0.54600900       3.34352400
C       -2.88726000       0.71121000       2.44801700
H       -3.61964400       1.77615700       0.72575400
H       -3.77524800       0.09992200       2.54509900
H       -1.59219100       3.15559800       0.50204800
H        0.13023000       1.16749000       3.90818200
H       -1.90514800      -0.18452100       4.13806800
C        0.56430000       3.12323500       2.07366500
N        1.65279900       2.89926700       2.91755800
H        1.45321900       3.07212700       3.89681100
H        2.43204800       3.49266300       2.66655900
H        0.31880900       4.16321600       1.87048000
H        0.71509300       3.38707900      -0.63748400
Cu       1.52192000       2.56322900       0.37745300
18
Properties=species:S:1:pos:R:3 energy=-1967.102844035044 pbc="F F F"
C       -2.82081700       1.65966100       1.43268400
C       -1.69362300       2.44077400       1.30546900
C       -0.61034100       2.28392100       2.19425700
C       -0.69065900       1.30705900       3.20309200
C       -1.83119100       0.53848100       3.33450100
C       -2.89382500       0.70589400       2.44970300
H       -3.64459300       1.78118600       0.74225300
H       -3.77751700       0.08864900       2.54774300
H       -1.62036800       3.17627400       0.51469800
H        0.13733100       1.16842900       3.88374500
H       -1.89459600      -0.19923100       4.12336800
C        0.54271600       3.14744800       2.07090200
N        1.64987000       2.92639600       2.88175700
H        1.49300600       3.01180900       3.88178800
H        2.41550200       3.54749400       2.64757200
H        0.30661400       4.17629900       1.81382400
H        0.78482800       3.33755800      -0.55247300
Cu       1.57012200       2.53635700       0.43815800
18
Properties=species:S:1:pos:R:3 energy=-1967.108943809623 pbc="F F F"
C       -2.83767600       1.66769800       1.44452800
C       -1.71412800       2.45804700       1.31666700
C       -0.62472900       2.29554900       2.19282200
C       -0.69068300       1.30804700       3.19084800
C       -1.82729600       0.52983500       3.32398900
C       -2.89788600       0.70172300       2.45051300
H       -3.66773800       1.79221000       0.76208500
H       -3.77746900       0.07866800       2.54808600
H       -1.64872100       3.20275800       0.53340800
H        0.14523400       1.16510100       3.86130000
H       -1.87974900      -0.21734300       4.10472600
C        0.52293200       3.17323900       2.06554500
N        1.64410200       2.95616600       2.85099600
H        1.52085400       2.94557700       3.86036500
H        2.39081600       3.61114200       2.64185900
H        0.29413100       4.19138500       1.76755700
H        0.85446100       3.26919600      -0.50198000
Cu       1.61600400       2.50546300       0.49972400
18
Properties=species:S:1:pos:R:3 energy=-1967.114733120448 pbc="F F F"
C       -2.85333700       1.67840000       1.45776200
C       -1.73296500       2.47757800       1.33146100
C       -0.63786600       2.30677600       2.19489400
C       -0.68956200       1.30728700       3.17998000
C       -1.82209200       0.51955100       3.31174200
C       -2.90087300       0.69829600       2.44979800
H       -3.68967900       1.80841000       0.78397100
H       -3.77673200       0.06975600       2.54542400
H       -1.67757500       3.23309600       0.55761700
H        0.15216000       1.15558700       3.84149000
H       -1.86371900      -0.23898200       4.08208700
C        0.50352700       3.19914200       2.06085700
N        1.63801800       2.99078600       2.82377000
H        1.54648000       2.88305800       3.83129500
H        2.36210700       3.68073800       2.64264900
H        0.27896200       4.20714500       1.73040900
H        0.92574400       3.18447700      -0.47859100
Cu       1.65985900       2.47335900       0.56642400
18
Properties=species:S:1:pos:R:3 energy=-1967.120384263446 pbc="F F F"
C       -2.86677500       1.68994500       1.47066100
C       -1.74944900       2.49737800       1.34808600
C       -0.64909000       2.31693700       2.19984100
C       -0.68758600       1.30504400       3.17114700
C       -1.81652000       0.50946300       3.29948300
C       -2.90289500       0.69599600       2.44809600
H       -3.70854400       1.82637100       0.80489800
H       -3.77570000       0.06283500       2.54113200
H       -1.70501800       3.26367900       0.58422300
H        0.15722500       1.14198700       3.82632700
H       -1.84885900      -0.26008100       4.05921300
C        0.48390900       3.22386200       2.05857600
N        1.63279000       3.02739700       2.79966300
H        1.57282200       2.82074900       3.79403500
H        2.33089700       3.75251200       2.65181000
H        0.25962100       4.22319400       1.70453000
H        0.99718700       3.08904900      -0.48252700
Cu       1.69844400       2.44814100       0.63384500
18
Properties=species:S:1:pos:R:3 energy=-1967.125910573856 pbc="F F F"
C       -2.87853000       1.70301700       1.48367700
C       -1.76512200       2.51802300       1.36608200
C       -0.65872400       2.32732800       2.20675100
C       -0.68435100       1.30249400       3.16372300
C       -1.80899800       0.50014500       3.28674400
C       -2.90293900       0.69502900       2.44581700
H       -3.72555300       1.84660200       0.82620800
H       -3.77277800       0.05745100       2.53630000
H       -1.73268200       3.29554900       0.61328300
H        0.16207100       1.12699500       3.81403200
H       -1.83257200      -0.28049100       4.03528400
C        0.46328900       3.24559700       2.05967000
N        1.62526800       3.06438100       2.77928100
H        1.59546200       2.76015100       3.74871700
H        2.29563200       3.82170100       2.67009300
H        0.23690200       4.23804700       1.68925900
H        1.07480000       2.97928400      -0.51165100
Cu       1.73128300       2.43315700       0.69977100
18
Properties=species:S:1:pos:R:3 energy=-1967.130942297334 pbc="F F F"
C       -2.89164900       1.71884500       1.49897800
C       -1.78396900       2.54132100       1.38601400
C       -0.66864700       2.34033700       2.21382200
C       -0.67981400       1.30044800       3.15463900
C       -1.79798900       0.49057500       3.27117700
C       -2.90108400       0.69459900       2.44334900
H       -3.74558000       1.87076800       0.85258900
H       -3.76698100       0.05143600       2.53184500
H       -1.76536600       3.33227900       0.64714500
H        0.16967500       1.11295100       3.79794600
H       -1.81075700      -0.30312100       4.00600500
C        0.44120600       3.26451000       2.06337300
N        1.61275400       3.10217200       2.76366700
H        1.61046200       2.70731300       3.69874300
H        2.25674300       3.88529500       2.69542800
H        0.21339700       4.25094400       1.67891100
H        1.17069900       2.84634700      -0.55486900
Cu       1.75936100       2.42744100       0.76428000
18
Properties=species:S:1:pos:R:3 energy=-1967.135110901079 pbc="F F F"
C       -2.90387700       1.73494000       1.51335600
C       -1.80300200       2.56492500       1.40492200
C       -0.67717900       2.35518900       2.21888100
C       -0.67426100       1.29912700       3.14269800
C       -1.78549000       0.48209300       3.25374400
C       -2.89775800       0.69455700       2.43980100
H       -3.76518000       1.89451300       0.87886200
H       -3.75936600       0.04547200       2.52682900
H       -1.79693500       3.37007100       0.68143000
H        0.18027200       1.10368200       3.77691100
H       -1.78735700      -0.32427900       3.97467500
C        0.42282700       3.28072500       2.06830200
N        1.60023900       3.13895400       2.75630000
H        1.62372700       2.66111000       3.65018800
H        2.21737200       3.94431300       2.73458600
H        0.19543000       4.26014600       1.66707900
H        1.25388000       2.69614300      -0.58822500
Cu       1.77911900       2.43277900       0.81270100
18
Properties=species:S:1:pos:R:3 energy=-1967.138458301088 pbc="F F F"
C       -2.91666800       1.75046900       1.52814800
C       -1.82105000       2.58653900       1.42439600
C       -0.68501400       2.36773300       2.22367100
C       -0.67028000       1.29476300       3.12963200
C       -1.77593600       0.47150700       3.23540900
C       -2.89686300       0.69372900       2.43565700
H       -3.78525800       1.91863700       0.90601200
H       -3.75506000       0.03988000       2.52069300
H       -1.82507700       3.40645600       0.71761300
H        0.19001300       1.09296200       3.75397500
H       -1.76832800      -0.34746900       3.94193000
C        0.40877500       3.29484000       2.07336100
N        1.58958900       3.17844000       2.75329100
H        1.64319200       2.62795900       3.60221600
H        2.17904600       4.00354700       2.77573100
H        0.18326700       4.26577100       1.65100700
H        1.33108600       2.53990000      -0.60483700
Cu       1.79702600       2.44879700       0.84513400
18
Properties=species:S:1:pos:R:3 energy=-1967.140974630123 pbc="F F F"
C       -2.93091100       1.76461600       1.54404200
C       -1.83939100       2.60613400       1.44358200
C       -0.69396000       2.37844200       2.22763600
C       -0.66784700       1.29007700       3.11629000
C       -1.76841500       0.46076000       3.21812500
C       -2.89804100       0.69244000       2.43281100
H       -3.80701100       1.94098100       0.93489600
H       -3.75321000       0.03444800       2.51629500
H       -1.85237400       3.44015800       0.75349700
H        0.19886600       1.08463800       3.73067700
H       -1.75166000      -0.36997000       3.91062700
C        0.39580300       3.30659500       2.07739500
N        1.57708500       3.21545900       2.75167000
H        1.66543700       2.59922500       3.55123100
H        2.14055300       4.05624900       2.81580100
H        0.17590000       4.26827400       1.63064400
H        1.41753800       2.39382400      -0.60628700
Cu       1.81409900       2.47210900       0.86410800
18
Properties=species:S:1:pos:R:3 energy=-1967.142519648001 pbc="F F F"
C       -2.94692200       1.78006200       1.56216300
C       -1.85843600       2.62631800       1.46265400
C       -0.70349200       2.38810400       2.22904600
C       -0.66394900       1.28411100       3.09844400
C       -1.75973700       0.44871500       3.19768900
C       -2.89966100       0.69159500       2.42999200
H       -3.83193500       1.96553300       0.96882600
H       -3.75197800       0.02978400       2.51229900
H       -1.88133500       3.47460800       0.79038900
H        0.21089800       1.07467500       3.69998100
H       -1.73248400      -0.39486200       3.87411300
C        0.38318000       3.31795400       2.07871300
N        1.56183900       3.25051700       2.75252200
H        1.68524600       2.58409200       3.50671600
H        2.10341300       4.10263600       2.84996600
H        0.17231500       4.26776900       1.60220600
H        1.50078900       2.24408100      -0.58031600
Cu       1.83470900       2.49876800       0.87764000
18
Properties=species:S:1:pos:R:3 energy=-1967.143048519711 pbc="F F F"
C       -2.96920000       1.79991500       1.58955100
C       -1.88122400       2.64660700       1.48524300
C       -0.71318000       2.39193900       2.22629800
C       -0.65831300       1.27060500       3.07323200
C       -1.75153100       0.43341500       3.17446200
C       -2.90576300       0.69347900       2.43278400
H       -3.86607400       1.99876600       1.01883800
H       -3.75693000       0.03045000       2.51728900
H       -1.91626300       3.50947800       0.83247200
H        0.22741700       1.05139200       3.65500100
H       -1.71242800      -0.42509300       3.83116300
C        0.37150100       3.32012200       2.07212100
N        1.54163900       3.28892200       2.75934400
H        1.69032700       2.59555200       3.48432300
H        2.06067200       4.15250100       2.87573400
H        0.17268700       4.25290200       1.55669000
H        1.62852800       2.11065500      -0.55659800
Cu       1.86059500       2.51285200       0.88509200
18
Properties=species:S:1:pos:R:3 energy=-1967.142469367845 pbc="F F F"
C       -2.97442400       1.81058500       1.59636700
C       -1.88951300       2.66398700       1.49423900
C       -0.71678400       2.40312900       2.22258600
C       -0.64850600       1.26957300       3.05105400
C       -1.73771600       0.42417400       3.14844700
C       -2.89916700       0.69122400       2.42109100
H       -3.87711700       2.01359800       1.03623800
H       -3.74647600       0.02262100       2.50044500
H       -1.93269400       3.53562300       0.85353700
H        0.24559900       1.04466100       3.61782500
H       -1.68828600      -0.44596700       3.78900000
C        0.36356800       3.34151200       2.07269300
N        1.53473300       3.30082400       2.75097100
H        1.70139700       2.60904500       3.47509700
H        2.05987200       4.16362700       2.85930500
H        0.16910200       4.26722200       1.54418800
H        1.57485800       1.97347900      -0.43166500
Cu       1.88401400       2.54554300       0.91162200
18
Properties=species:S:1:pos:R:3 energy=-1967.14315821895 pbc="F F F"
C       -2.97557500       1.80822700       1.59868700
C       -1.88789200       2.65602600       1.49311700
C       -0.71589200       2.39531900       2.22508700
C       -0.65391100       1.26655400       3.06157200
C       -1.74579300       0.42711800       3.16188300
C       -2.90536900       0.69393800       2.43070800
H       -3.87664900       2.01161700       1.03622200
H       -3.75521500       0.02898100       2.51354200
H       -1.92821300       3.52390300       0.84734000
H        0.23753100       1.04068100       3.63195800
H       -1.70088000      -0.43914700       3.80794100
C        0.36772800       3.32446300       2.06939400
N        1.53404400       3.29869700       2.76035000
H        1.68454500       2.61466100       3.49417600
H        2.05538000       4.16296900       2.86515500
H        0.17373900       4.25016100       1.53945600
H        1.63857200       2.05318100      -0.52026200
Cu       1.87631000       2.51711100       0.89671400
18
Properties=species:S:1:pos:R:3 energy=-1967.143195622824 pbc="F F F"
C       -2.97766500       1.80868100       1.60080800
C       -1.88979800       2.65623300       1.49451300
C       -0.71755600       2.39516600       2.22604900
C       -0.65502900       1.26599600       3.06211800
C       -1.74683500       0.42669400       3.16262400
C       -2.90693300       0.69415700       2.43235700
H       -3.87920600       2.01251600       1.03926700
H       -3.75676900       0.02919800       2.51536700
H       -1.93096700       3.52431500       0.84909600
H        0.23723800       1.03909900       3.63079600
H       -1.70146400      -0.44031300       3.80765100
C        0.36642900       3.32279800       2.06856800
N        1.53216000       3.29778300       2.75947700
H        1.68167600       2.61739200       3.49678000
H        2.05598200       4.16111200       2.85889100
H        0.17436600       4.24667600       1.53487600
H        1.65587300       2.06317500      -0.52514600
Cu       1.88095800       2.51378200       0.89894800
18
Properties=species:S:1:pos:R:3 energy=-1967.143275441655 pbc="F F F"
C       -2.98653700       1.81268200       1.61079400
C       -1.89829500       2.65966100       1.50056400
C       -0.72271900       2.39501100       2.22554100
C       -0.65574700       1.26234000       3.05714200
C       -1.74754600       0.42411400       3.16112500
C       -2.91160400       0.69555700       2.43810100
H       -3.89109000       2.01875500       1.05498500
H       -3.76115500       0.03037900       2.52264800
H       -1.94379200       3.52932600       0.85767300
H        0.24124600       1.03137500       3.61658700
H       -1.69911200      -0.44636600       3.80121700
C        0.36123700       3.31969800       2.06440600
N        1.52364500       3.29708800       2.76022600
H        1.66738300       2.63114200       3.51168800
H        2.05550000       4.15732100       2.84331200
H        0.17623500       4.23453200       1.51330800
H        1.71292000       2.07627500      -0.53117100
Cu       1.90189200       2.50556800       0.90489200
18
Properties=species:S:1:pos:R:3 energy=-1967.143299983126 pbc="F F F"
C       -2.99090400       1.81437400       1.61541800
C       -1.90254100       2.66115900       1.50330500
C       -0.72530600       2.39525700       2.22516200
C       -0.65646500       1.26096200       3.05491100
C       -1.74801600       0.42280500       3.16028800
C       -2.91402100       0.69604500       2.44081000
H       -3.89678700       2.02124300       1.06208600
H       -3.76341200       0.03077300       2.52629800
H       -1.94961700       3.53157800       0.86152400
H        0.24263600       1.02852300       3.61032300
H       -1.69823100      -0.44904200       3.79840400
C        0.35762300       3.32060400       2.06411100
N        1.51957200       3.29728100       2.75892900
H        1.66397800       2.63231600       3.51113200
H        2.05392900       4.15648300       2.83954300
H        0.17557600       4.23143300       1.50548900
H        1.74157500       2.07558800      -0.53075600
Cu       1.91287100       2.50707800       0.90606300
18
Properties=species:S:1:pos:R:3 energy=-1967.143321718795 pbc="F F F"
C       -2.99320400       1.81473900       1.61743400
C       -1.90509400       2.66174000       1.50471200
C       -0.72688600       2.39582000       2.22513700
C       -0.65721200       1.26077500       3.05422300
C       -1.74850800       0.42254600       3.16047900
C       -2.91541900       0.69618400       2.44245100
H       -3.89950600       2.02140900       1.06472200
H       -3.76464500       0.03080600       2.52871200
H       -1.95244200       3.53223500       0.86300700
H        0.24278000       1.02814800       3.60811100
H       -1.69820500      -0.44948600       3.79828500
C        0.35411400       3.32340000       2.06632000
N        1.51756000       3.29636300       2.75751700
H        1.66247900       2.62948000       3.50809700
H        2.05355700       4.15463500       2.83990200
H        0.17305700       4.23195200       1.50374700
H        1.75933300       2.07300800      -0.53269700
Cu       1.92069900       2.51070500       0.90288400
18
Properties=species:S:1:pos:R:3 energy=-1967.143338011373 pbc="F F F"
C       -2.99289400       1.81377500       1.61628800
C       -1.90556500       2.66173200       1.50535000
C       -0.72771200       2.39708100       2.22719500
C       -0.65857700       1.26224200       3.05683500
C       -1.74924000       0.42309400       3.16160900
C       -2.91539100       0.69549000       2.44182100
H       -3.89846500       2.01942000       1.06200700
H       -3.76422600       0.02954500       2.52745600
H       -1.95201300       3.53216700       0.86346200
H        0.24041000       1.03076600       3.61284900
H       -1.69930000      -0.44843100       3.80012400
C        0.35142100       3.32670300       2.07084700
N        1.51843800       3.29509000       2.75481800
H        1.66527500       2.62377200       3.50114800
H        2.05449100       4.15303800       2.84129600
H        0.16946000       4.23557600       1.50911700
H        1.76438200       2.06959400      -0.53675500
Cu       1.92196900       2.51380500       0.89757400
18
Properties=species:S:1:pos:R:3 energy=-1967.14335160758 pbc="F F F"
C       -2.99087600       1.81225800       1.61321000
C       -1.90494300       2.66205100       1.50604800
C       -0.72825400       2.39921700       2.23100900
C       -0.66011800       1.26483200       3.06138900
C       -1.74974300       0.42400300       3.16282000
C       -2.91401200       0.69408900       2.43915300
H       -3.89504700       2.01637000       1.05609700
H       -3.76203600       0.02684600       2.52261000
H       -1.95018900       3.53266100       0.86431000
H        0.23659900       1.03540200       3.62189300
H       -1.70050800      -0.44690400       3.80222400
C        0.34943600       3.32996600       2.07666100
N        1.52136100       3.29371800       2.75159600
H        1.67013700       2.61876200       3.49434400
H        2.05674700       4.15167500       2.84150400
H        0.16566800       4.24071800       1.51861500
H        1.76003600       2.06480100      -0.54206800
Cu       1.91820100       2.51399700       0.89162500
18
Properties=species:S:1:pos:R:3 energy=-1967.143358942127 pbc="F F F"
C       -2.98936800       1.81164300       1.61116100
C       -1.90468800       2.66316600       1.50713800
C       -0.72881700       2.40123000       2.23414000
C       -0.66093000       1.26675800       3.06436500
C       -1.74953000       0.42428900       3.16274700
C       -2.91244100       0.69285500       2.43638700
H       -3.89271600       2.01485700       1.05240000
H       -3.75958100       0.02419800       2.51746900
H       -1.94970200       3.53441800       0.86628200
H        0.23419000       1.03875000       3.62797500
H       -1.70044900      -0.44672000       3.80202100
C        0.34855200       3.33168000       2.08018600
N        1.52370900       3.29342600       2.74939200
H        1.67374500       2.61793600       3.49142800
H        2.05832500       4.15174200       2.83952800
H        0.16392900       4.24404100       1.52506300
H        1.75471400       2.05913900      -0.54406100
Cu       1.91351900       2.51105200       0.88941700
18
Properties=species:S:1:pos:R:3 energy=-1967.143362577828 pbc="F F F"
C       -2.98908900       1.81199200       1.61086900
C       -1.90519700       2.66464600       1.50831500
C       -0.72939100       2.40262200       2.23552600
C       -0.66090500       1.26752100       3.06482100
C       -1.74877900       0.42397000       3.16162700
C       -2.91139900       0.69219800       2.43470000
H       -3.89244300       2.01504600       1.05206800
H       -3.75788100       0.02251900       2.51424900
H       -1.95085000       3.53668400       0.86860300
H        0.23390700       1.03999800       3.62909500
H       -1.69925100      -0.44767300       3.80000200
C        0.34817300       3.33238400       2.08126300
N        1.52455100       3.29393700       2.74851400
H        1.67489800       2.62005800       3.49197300
H        2.05872900       4.15264700       2.83692900
H        0.16373700       4.24539000       1.52713200
H        1.75294900       2.05340300      -0.54289600
Cu       1.91070200       2.50711900       0.89025000
18
Properties=species:S:1:pos:R:3 energy=-1967.143364225755 pbc="F F F"
C       -2.98968300       1.81278500       1.61172200
C       -1.90612300       2.66593900       1.50930100
C       -0.72988000       2.40333400       2.23555400
C       -0.66047000       1.26741100       3.06370200
C       -1.74796100       0.42337100       3.16021800
C       -2.91103100       0.69205000       2.43416200
H       -3.89352000       2.01611600       1.05380500
H       -3.75718800       0.02189100       2.51316800
H       -1.95268400       3.53863800       0.87057000
H        0.23491000       1.03970600       3.62698000
H       -1.69775600      -0.44903400       3.79749900
C        0.34783000       3.33276100       2.08104200
N        1.52424000       3.29479300       2.74835500
H        1.67447600       2.62281300       3.49356500
H        2.05827800       4.15377900       2.83490400
H        0.16397900       4.24567300       1.52655700
H        1.75505800       2.04842500      -0.54031300
Cu       1.90998500       2.50400900       0.89225100
18
Properties=species:S:1:pos:R:3 energy=-1967.14336484091 pbc="F F F"
C       -2.99047900       1.81352200       1.61281300
C       -1.90696100       2.66675600       1.50992500
C       -0.73017000       2.40355600       2.23497300
C       -0.65998000       1.26693900       3.06219900
C       -1.74735000       0.42283400       3.15910300
C       -2.91108800       0.69218500       2.43431400
H       -3.89484700       2.01722000       1.05589200
H       -3.75718500       0.02196100       2.51344600
H       -1.95422600       3.53985400       0.87179300
H        0.23621800       1.03880000       3.62399300
H       -1.69658000      -0.45015300       3.79553800
C        0.34745000       3.33311900       2.08052700
N        1.52350400       3.29557300       2.74846300
H        1.67347400       2.62487100       3.49489600
H        2.05760800       4.15466100       2.83387000
H        0.16402000       4.24565300       1.52528300
H        1.75866100       2.04487300      -0.53795500
Cu       1.91039300       2.50223400       0.89396800
18
Properties=species:S:1:pos:R:3 energy=-1967.143364946945 pbc="F F F"
C       -2.99095700       1.81388700       1.61345800
C       -1.90736000       2.66701000       1.51014400
C       -0.73023400       2.40350600       2.23447100
C       -0.65969600       1.26654800       3.06126800
C       -1.74709800       0.42257100       3.15860900
C       -2.91127400       0.69236200       2.43463900
H       -3.89560700       2.01781300       1.05707700
H       -3.75744400       0.02227300       2.51411000
H       -1.95489100       3.54023300       0.87219800
H        0.23703000       1.03806900       3.62208600
H       -1.69607700      -0.45066400       3.79468100
C        0.34717000       3.33341200       2.08025000
N        1.52295900       3.29601500       2.74856200
H        1.67273700       2.62565500       3.49535500
H        2.05721700       4.15505600       2.83371200
H        0.16378000       4.24565200       1.52452000
H        1.76127900       2.04328800      -0.53680800
Cu       1.91092500       2.50177200       0.89470800
