
                                 *****************
                                 * O   R   C   A *
                                 *****************

                                            #,                                       
                                            ###                                      
                                            ####                                     
                                            #####                                    
                                            ######                                   
                                           ########,                                 
                                     ,,################,,,,,                         
                               ,,#################################,,                 
                          ,,##########################################,,             
                       ,#########################################, ''#####,          
                    ,#############################################,,   '####,        
                  ,##################################################,,,,####,       
                ,###########''''           ''''###############################       
              ,#####''   ,,,,##########,,,,          '''####'''          '####       
            ,##' ,,,,###########################,,,                        '##       
           ' ,,###''''                  '''############,,,                           
         ,,##''                                '''############,,,,        ,,,,,,###''
      ,#''                                            '''#######################'''  
     '                                                          ''''####''''         
             ,#######,   #######,   ,#######,      ##                                
            ,#'     '#,  ##    ##  ,#'     '#,    #''#        ######   ,####,        
            ##       ##  ##   ,#'  ##            #'  '#       #        #'  '#        
            ##       ##  #######   ##           ,######,      #####,   #    #        
            '#,     ,#'  ##    ##  '#,     ,#' ,#      #,         ##   #,  ,#        
             '#######'   ##     ##  '#######'  #'      '#     #####' # '####'        



                  #######################################################
                  #                        -***-                        #
                  #          Department of theory and spectroscopy      #
                  #    Directorship and core code : Frank Neese         #
                  #        Max Planck Institute fuer Kohlenforschung    #
                  #                Kaiser Wilhelm Platz 1               #
                  #                 D-45470 Muelheim/Ruhr               #
                  #                      Germany                        #
                  #                                                     #
                  #                  All rights reserved                #
                  #                        -***-                        #
                  #######################################################


                         Program Version 5.0.3 -  RELEASE  -


 With contributions from (in alphabetic order):
   Daniel Aravena         : Magnetic Suceptibility
   Michael Atanasov       : Ab Initio Ligand Field Theory (pilot matlab implementation)
   Alexander A. Auer      : GIAO ZORA, VPT2 properties, NMR spectrum
   Ute Becker             : Parallelization
   Giovanni Bistoni       : ED, misc. LED, open-shell LED, HFLD
   Martin Brehm           : Molecular dynamics
   Dmytro Bykov           : SCF Hessian
   Vijay G. Chilkuri      : MRCI spin determinant printing, contributions to CSF-ICE
   Dipayan Datta          : RHF DLPNO-CCSD density
   Achintya Kumar Dutta   : EOM-CC, STEOM-CC
   Dmitry Ganyushin       : Spin-Orbit,Spin-Spin,Magnetic field MRCI
   Miquel Garcia          : C-PCM and meta-GGA Hessian, CC/C-PCM, Gaussian charge scheme
   Yang Guo               : DLPNO-NEVPT2, F12-NEVPT2, CIM, IAO-localization
   Andreas Hansen         : Spin unrestricted coupled pair/coupled cluster methods
   Benjamin Helmich-Paris : MC-RPA, TRAH-SCF, COSX integrals
   Lee Huntington         : MR-EOM, pCC
   Robert Izsak           : Overlap fitted RIJCOSX, COSX-SCS-MP3, EOM
   Marcus Kettner         : VPT2
   Christian Kollmar      : KDIIS, OOCD, Brueckner-CCSD(T), CCSD density, CASPT2, CASPT2-K
   Simone Kossmann        : Meta GGA functionals, TD-DFT gradient, OOMP2, MP2 Hessian
   Martin Krupicka        : Initial AUTO-CI
   Lucas Lang             : DCDCAS
   Marvin Lechner         : AUTO-CI (C++ implementation), FIC-MRCC
   Dagmar Lenk            : GEPOL surface, SMD
   Dimitrios Liakos       : Extrapolation schemes; Compound Job, initial MDCI parallelization
   Dimitrios Manganas     : Further ROCIS development; embedding schemes
   Dimitrios Pantazis     : SARC Basis sets
   Anastasios Papadopoulos: AUTO-CI, single reference methods and gradients
   Taras Petrenko         : DFT Hessian,TD-DFT gradient, ASA, ECA, R-Raman, ABS, FL, XAS/XES, NRVS
   Peter Pinski           : DLPNO-MP2, DLPNO-MP2 Gradient
   Christoph Reimann      : Effective Core Potentials
   Marius Retegan         : Local ZFS, SOC
   Christoph Riplinger    : Optimizer, TS searches, QM/MM, DLPNO-CCSD(T), (RO)-DLPNO pert. Triples
   Tobias Risthaus        : Range-separated hybrids, TD-DFT gradient, RPA, STAB
   Michael Roemelt        : Original ROCIS implementation
   Masaaki Saitow         : Open-shell DLPNO-CCSD energy and density
   Barbara Sandhoefer     : DKH picture change effects
   Avijit Sen             : IP-ROCIS
   Kantharuban Sivalingam : CASSCF convergence, NEVPT2, FIC-MRCI
   Bernardo de Souza      : ESD, SOC TD-DFT
   Georgi Stoychev        : AutoAux, RI-MP2 NMR, DLPNO-MP2 response
   Willem Van den Heuvel  : Paramagnetic NMR
   Boris Wezisla          : Elementary symmetry handling
   Frank Wennmohs         : Technical directorship


 We gratefully acknowledge several colleagues who have allowed us to
 interface, adapt or use parts of their codes:
   Stefan Grimme, W. Hujo, H. Kruse, P. Pracht,  : VdW corrections, initial TS optimization,
                  C. Bannwarth, S. Ehlert          DFT functionals, gCP, sTDA/sTD-DF
   Ed Valeev, F. Pavosevic, A. Kumar             : LibInt (2-el integral package), F12 methods
   Garnet Chan, S. Sharma, J. Yang, R. Olivares  : DMRG
   Ulf Ekstrom                                   : XCFun DFT Library
   Mihaly Kallay                                 : mrcc  (arbitrary order and MRCC methods)
   Jiri Pittner, Ondrej Demel                    : Mk-CCSD
   Frank Weinhold                                : gennbo (NPA and NBO analysis)
   Christopher J. Cramer and Donald G. Truhlar   : smd solvation model
   Lars Goerigk                                  : TD-DFT with DH, B97 family of functionals
   V. Asgeirsson, H. Jonsson                     : NEB implementation
   FAccTs GmbH                                   : IRC, NEB, NEB-TS, DLPNO-Multilevel, CI-OPT
                                                   MM, QMMM, 2- and 3-layer-ONIOM, Crystal-QMMM,
                                                   LR-CPCM, SF, NACMEs, symmetry and pop. for TD-DFT,
                                                   nearIR, NL-DFT gradient (VV10), updates on ESD,
                                                   ML-optimized integration grids
   S Lehtola, MJT Oliveira, MAL Marques          : LibXC Library
   Liviu Ungur et al                             : ANISO software


 Your calculation uses the libint2 library for the computation of 2-el integrals
 For citations please refer to: http://libint.valeyev.net

 Your ORCA version has been built with support for libXC version: 5.1.0
 For citations please refer to: https://tddft.org/programs/libxc/

 This ORCA versions uses:
   CBLAS   interface :  Fast vector & matrix operations
   LAPACKE interface :  Fast linear algebra routines
   SCALAPACK package :  Parallel linear algebra routines
   Shared memory     :  Shared parallel matrices
   BLAS/LAPACK       :  OpenBLAS 0.3.15  USE64BITINT DYNAMIC_ARCH NO_AFFINITY Haswell SINGLE_THREADED
        Core in use  :  Haswell
   Copyright (c) 2011-2014, The OpenBLAS Project




***************************************
The coordinates will be read from file: product.xyz
***************************************


Your calculation utilizes the atom-pairwise dispersion correction
with the Becke-Johnson damping scheme (D3BJ)
Cite in your paper:
S.Grimme, S.Ehrlich, L.Goerigk, J Comput Chem, (2011), 32, 1456–1465 
S.Grimme, J.Antony, S.Ehrlich and H.Krieg, J.Chem.Phys., 132, (2010), 154104 
   

================================================================================

----- Orbital basis set information -----
Your calculation utilizes the basis: def2-TZVP
   F. Weigend and R. Ahlrichs, Phys. Chem. Chem. Phys. 7, 3297 (2005).

----- AuxJ basis set information -----
Your calculation utilizes the auxiliary basis: def2/J
   F. Weigend, Phys. Chem. Chem. Phys. 8, 1057 (2006).

================================================================================
                                        WARNINGS
                       Please study these warnings very carefully!
================================================================================


WARNING: Geometry Optimization
  ===> : Switching off AutoStart
         For restart on a previous wavefunction, please use MOREAD

INFO   : the flag for use of the SHARK integral package has been found!

================================================================================
                                       INPUT FILE
================================================================================
NAME = orca.inp
|  1> !B3LYP DEF2-TZVP D3BJ 
|  2> !OPT FREQ TIGHTOPT TightSCF defgrid2
|  3> %SCF
|  4>     MaxIter 2000       # Here setting MaxIter to a very high number. Intended for systems that require sometimes 1000 iterations before converging (very rare).
|  5>     DIISMaxEq 5        # Default value is 5. A value of 15-40 necessary for difficult systems.
|  6>     directresetfreq 15 # Default value is 15. A value of 1 (very expensive) is sometimes required. A value between 1 and 15 may be more cost-effective.
|  7> END
|  8> %CPCM EPSILON 6.02 REFRAC 1.3723 END
|  9> %PAL NPROCS 32 END
| 10> %maxcore 2000 # This indicates you want ORCA to use only 2GB per core maximum, so ORCA will use only 2GB*32=64GB of memory in total.
| 11> * xyzfile 1 1 product.xyz 
| 12> 
| 13>                          ****END OF INPUT****
================================================================================

                       *****************************
                       * Geometry Optimization Run *
                       *****************************

Geometry optimization settings:
Update method            Update   .... BFGS
Choice of coordinates    CoordSys .... Z-matrix Internals
Initial Hessian          InHess   .... Almoef's Model

Convergence Tolerances:
Energy Change            TolE     ....  1.0000e-06 Eh
Max. Gradient            TolMAXG  ....  1.0000e-04 Eh/bohr
RMS Gradient             TolRMSG  ....  3.0000e-05 Eh/bohr
Max. Displacement        TolMAXD  ....  1.0000e-03 bohr
RMS Displacement         TolRMSD  ....  6.0000e-04 bohr
Strict Convergence                ....  False
------------------------------------------------------------------------------
                        ORCA OPTIMIZATION COORDINATE SETUP
------------------------------------------------------------------------------

The optimization will be done in new redundant internal coordinates
Making redundant internal coordinates   ...  (new redundants) done
Evaluating the initial hessian          ...  (Almloef) done
Evaluating the coordinates              ...  done
Calculating the B-matrix                .... done
Calculating the G-matrix                .... done
Diagonalizing the G-matrix              .... done
Small eigenvalue found = 2.181e-02
The first mode is                       ....   37
The number of degrees of freedom        ....   48

    -----------------------------------------------------------------
                    Redundant Internal Coordinates


    -----------------------------------------------------------------
         Definition                    Initial Value    Approx d2E/dq
    -----------------------------------------------------------------
      1. B(C   1,C   0)                  1.3981         0.606516   
      2. B(C   2,C   1)                  1.4045         0.592440   
      3. B(C   3,C   2)                  1.4108         0.578845   
      4. B(C   4,C   3)                  1.3988         0.605010   
      5. B(C   5,C   4)                  1.3965         0.609950   
      6. B(C   5,C   0)                  1.3964         0.610349   
      7. B(H   6,C   0)                  1.0824         0.370336   
      8. B(H   7,C   5)                  1.0824         0.370319   
      9. B(H   8,C   1)                  1.0831         0.369306   
     10. B(H   9,C   3)                  1.0815         0.371586   
     11. B(H  10,C   4)                  1.0825         0.370193   
     12. B(C  11,C   2)                  1.5115         0.399889   
     13. B(N  12,C  11)                  1.4594         0.433699   
     14. B(H  13,N  12)                  1.0462         0.378804   
     15. B(H  14,N  12)                  1.0449         0.380635   
     16. B(H  15,C  11)                  1.1129         0.331052   
     17. B(Cu 17,H  16)                  1.6555         0.456432   
     18. B(Cu 17,C  11)                  2.0521         0.555266   
     19. A(C   5,C   0,H   6)          119.9435         0.353647   
     20. A(C   1,C   0,C   5)          120.0883         0.431136   
     21. A(C   1,C   0,H   6)          119.9682         0.353270   
     22. A(C   0,C   1,C   2)          120.5830         0.428838   
     23. A(C   0,C   1,H   8)          119.0964         0.353103   
     24. A(C   2,C   1,H   8)          120.3205         0.351703   
     25. A(C   1,C   2,C   3)          118.8793         0.425265   
     26. A(C   3,C   2,C  11)          123.1002         0.396641   
     27. A(C   1,C   2,C  11)          118.0199         0.398262   
     28. A(C   4,C   3,H   9)          118.2635         0.353323   
     29. A(C   2,C   3,H   9)          121.4403         0.350691   
     30. A(C   2,C   3,C   4)          120.2961         0.426866   
     31. A(C   3,C   4,H  10)          119.9374         0.353098   
     32. A(C   3,C   4,C   5)          120.1873         0.430893   
     33. A(C   5,C   4,H  10)          119.8752         0.353585   
     34. A(C   0,C   5,C   4)          119.9659         0.431573   
     35. A(C   4,C   5,H   7)          120.0217         0.353605   
     36. A(C   0,C   5,H   7)          120.0124         0.353644   
     37. A(N  12,C  11,Cu 17)          108.5590         0.444550   
     38. A(C   2,C  11,Cu 17)          108.1232         0.440974   
     39. A(N  12,C  11,H  15)          109.3422         0.325848   
     40. A(C   2,C  11,H  15)          109.4648         0.323466   
     41. A(H  15,C  11,Cu 17)          108.1613         0.380677   
     42. A(C   2,C  11,N  12)          113.0663         0.374811   
     43. A(H  13,N  12,H  14)          107.5624         0.290955   
     44. A(C  11,N  12,H  14)          107.8808         0.330601   
     45. A(C  11,N  12,H  13)          109.0263         0.330337   
     46. A(C  11,Cu 17,H  16)          109.4089         0.468904   
     47. D(H   8,C   1,C   0,H   6)      0.0065         0.025390   
     48. D(C   2,C   1,C   0,H   6)    179.9950         0.025390   
     49. D(C   2,C   1,C   0,C   5)     -0.0196         0.025390   
     50. D(H   8,C   1,C   0,C   5)    179.9918         0.025390   
     51. D(C   3,C   2,C   1,C   0)      0.1037         0.024164   
     52. D(C  11,C   2,C   1,H   8)     -0.1791         0.024164   
     53. D(C   3,C   2,C   1,H   8)   -179.9079         0.024164   
     54. D(C  11,C   2,C   1,C   0)    179.8325         0.024164   
     55. D(H   9,C   3,C   2,C  11)      0.0664         0.023016   
     56. D(H   9,C   3,C   2,C   1)    179.7806         0.023016   
     57. D(C   4,C   3,C   2,C  11)   -179.8446         0.023016   
     58. D(C   4,C   3,C   2,C   1)     -0.1304         0.023016   
     59. D(C   5,C   4,C   3,H   9)   -179.8404         0.025257   
     60. D(H  10,C   4,C   3,C   2)   -179.9774         0.025257   
     61. D(C   5,C   4,C   3,C   2)      0.0734         0.025257   
     62. D(H  10,C   4,C   3,H   9)      0.1088         0.025257   
     63. D(H   7,C   5,C   4,H  10)      0.0158         0.025694   
     64. D(C   0,C   5,C   4,H  10)   -179.9368         0.025694   
     65. D(C   0,C   5,C   4,C   3)      0.0125         0.025694   
     66. D(H   7,C   5,C   0,H   6)     -0.0067         0.025730   
     67. D(H   7,C   5,C   0,C   1)   -179.9921         0.025730   
     68. D(H   7,C   5,C   4,C   3)    179.9650         0.025694   
     69. D(C   4,C   5,C   0,H   6)    179.9459         0.025730   
     70. D(C   4,C   5,C   0,C   1)     -0.0395         0.025730   
     71. D(Cu 17,C  11,C   2,C   3)    120.4883         0.011868   
     72. D(Cu 17,C  11,C   2,C   1)    -59.2282         0.011868   
     73. D(H  15,C  11,C   2,C   3)   -121.8972         0.011868   
     74. D(H  15,C  11,C   2,C   1)     58.3863         0.011868   
     75. D(N  12,C  11,C   2,C   3)      0.2649         0.011868   
     76. D(N  12,C  11,C   2,C   1)   -179.4517         0.011868   
     77. D(H  13,N  12,C  11,C   2)    -68.7279         0.016037   
     78. D(H  14,N  12,C  11,Cu 17)     54.7699         0.016037   
     79. D(H  14,N  12,C  11,H  15)    -63.0253         0.016037   
     80. D(H  14,N  12,C  11,C   2)    174.7441         0.016037   
     81. D(H  13,N  12,C  11,Cu 17)    171.2978         0.016037   
     82. D(H  13,N  12,C  11,H  15)     53.5027         0.016037   
     83. D(H  16,Cu 17,C  11,H  15)    -38.6912         0.002647   
     84. D(H  16,Cu 17,C  11,N  12)   -157.2350         0.002647   
     85. D(H  16,Cu 17,C  11,C   2)     79.7574         0.002647   
    -----------------------------------------------------------------

Number of atoms                         .... 18
Number of degrees of freedom            .... 85

         *************************************************************
         *                GEOMETRY OPTIMIZATION CYCLE   1            *
         *************************************************************
---------------------------------
CARTESIAN COORDINATES (ANGSTROEM)
---------------------------------
  C     -2.781600    1.622250    1.415630
  C     -1.618540    2.388350    1.293080
  C     -0.565840    2.241090    2.211060
  C     -0.700740    1.305210    3.258090
  C     -1.866820    0.541780    3.376250
  C     -2.905890    0.699930    2.456650
  H     -3.586780    1.743900    0.702600
  H     -3.806810    0.107370    2.550290
  H     -1.539150    3.098870    0.479430
  H      0.085210    1.155620    3.985720
  H     -1.964310   -0.174370    4.182090
  C      0.666250    3.095850    2.021630
  N      1.695080    2.846550    3.026190
  H      1.356820    3.192240    3.953900
  H      2.537750    3.408140    2.768610
  H      0.379300    4.170820    2.046800
  H      0.589600    3.504910   -0.984430
  Cu     1.448930    2.685950    0.169450

----------------------------
CARTESIAN COORDINATES (A.U.)
----------------------------
  NO LB      ZA    FRAG     MASS         X           Y           Z
   0 C     6.0000    0    12.011   -5.256462    3.065608    2.675153
   1 C     6.0000    0    12.011   -3.058597    4.513327    2.443567
   2 C     6.0000    0    12.011   -1.069283    4.235046    4.178298
   3 C     6.0000    0    12.011   -1.324207    2.466489    6.156898
   4 C     6.0000    0    12.011   -3.527779    1.023816    6.380188
   5 C     6.0000    0    12.011   -5.491336    1.322676    4.642396
   6 H     1.0000    0     1.008   -6.778032    3.295493    1.327722
   7 H     1.0000    0     1.008   -7.193828    0.202900    4.819350
   8 H     1.0000    0     1.008   -2.908572    5.856016    0.905991
   9 H     1.0000    0     1.008    0.161024    2.183805    7.531919
  10 H     1.0000    0     1.008   -3.712008   -0.329512    7.903005
  11 C     6.0000    0    12.011    1.259030    5.850309    3.820327
  12 N     7.0000    0    14.007    3.203237    5.379200    5.718670
  13 H     1.0000    0     1.008    2.564018    6.032459    7.471788
  14 H     1.0000    0     1.008    4.795652    6.440451    5.231915
  15 H     1.0000    0     1.008    0.716773    7.881708    3.867891
  16 H     1.0000    0     1.008    1.114183    6.623320   -1.860303
  17 Cu   29.0000    0    63.550    2.738081    5.075710    0.320214

--------------------------------
INTERNAL COORDINATES (ANGSTROEM)
--------------------------------
 C      0   0   0     0.000000000000     0.00000000     0.00000000
 C      1   0   0     1.398083071960     0.00000000     0.00000000
 C      2   1   0     1.404475018646   120.58302002     0.00000000
 C      3   2   1     1.410794529795   118.87929027     0.10367133
 C      4   3   2     1.398760064092   120.29609771   359.86960815
 C      1   2   3     1.396368442389   120.08827070     0.00000000
 H      1   2   3     1.082370239705   119.96822062   179.99504593
 H      6   1   2     1.082382857218   120.01242223   180.00794146
 H      2   1   3     1.083128692723   119.09644730   180.01141483
 H      4   3   2     1.081452720881   121.44029779   179.78060160
 H      5   4   3     1.082475509284   119.93744126   180.02259809
 C      3   2   1     1.511470856682   118.01990726   179.83246995
 N     12   3   2     1.459377419484   113.06628521   180.54834572
 H     13  12   3     1.046215679389   109.02630292   291.27206507
 H     13  12   3     1.044903590481   107.88082901   174.74410670
 H     12   3   2     1.112894573758   109.46481189    58.38630796
 H      9   2   1     2.615211491199   125.59111940   221.97268357
 Cu    17   9   2     1.655470502576    87.45357552   344.86495126

---------------------------
INTERNAL COORDINATES (A.U.)
---------------------------
 C      0   0   0     0.000000000000     0.00000000     0.00000000
 C      1   0   0     2.641994118475     0.00000000     0.00000000
 C      2   1   0     2.654073147174   120.58302002     0.00000000
 C      3   2   1     2.666015292547   118.87929027     0.10367133
 C      4   3   2     2.643273448201   120.29609771   359.86960815
 C      1   2   3     2.638753938165   120.08827070     0.00000000
 H      1   2   3     2.045383328550   119.96822062   179.99504593
 H      6   1   2     2.045407172194   120.01242223   180.00794146
 H      2   1   3     2.046816597039   119.09644730   180.01141483
 H      4   3   2     2.043649469248   121.44029779   179.78060160
 H      5   4   3     2.045582259224   119.93744126   180.02259809
 C      3   2   1     2.856265978533   118.01990726   179.83246995
 N     12   3   2     2.757823648854   113.06628521   180.54834572
 H     13  12   3     1.977061111060   109.02630292   291.27206507
 H     13  12   3     1.974581622360   107.88082901   174.74410670
 H     12   3   2     2.103065960330   109.46481189    58.38630796
 H      9   2   1     4.942033500650   125.59111940   221.97268357
 Cu    17   9   2     3.128385872654    87.45357552   344.86495126

---------------------
BASIS SET INFORMATION
---------------------
There are 4 groups of distinct atoms

 Group   1 Type C   : 11s6p2d1f contracted to 5s3p2d1f pattern {62111/411/11/1}
 Group   2 Type H   : 5s1p contracted to 3s1p pattern {311/1}
 Group   3 Type N   : 11s6p2d1f contracted to 5s3p2d1f pattern {62111/411/11/1}
 Group   4 Type Cu  : 17s11p7d1f contracted to 6s4p4d1f pattern {842111/6311/4111/1}

Atom   0C    basis set group =>   1
Atom   1C    basis set group =>   1
Atom   2C    basis set group =>   1
Atom   3C    basis set group =>   1
Atom   4C    basis set group =>   1
Atom   5C    basis set group =>   1
Atom   6H    basis set group =>   2
Atom   7H    basis set group =>   2
Atom   8H    basis set group =>   2
Atom   9H    basis set group =>   2
Atom  10H    basis set group =>   2
Atom  11C    basis set group =>   1
Atom  12N    basis set group =>   3
Atom  13H    basis set group =>   2
Atom  14H    basis set group =>   2
Atom  15H    basis set group =>   2
Atom  16H    basis set group =>   2
Atom  17Cu   basis set group =>   4
---------------------------------
AUXILIARY/J BASIS SET INFORMATION
---------------------------------
There are 4 groups of distinct atoms

 Group   1 Type C   : 12s5p4d2f1g contracted to 6s4p3d1f1g pattern {711111/2111/211/2/1}
 Group   2 Type H   : 5s2p1d contracted to 3s1p1d pattern {311/2/1}
 Group   3 Type N   : 12s5p4d2f1g contracted to 6s4p3d1f1g pattern {711111/2111/211/2/1}
 Group   4 Type Cu  : 19s5p5d3f3g contracted to 8s5p4d3f3g pattern {121111111/11111/2111/111/111}

Atom   0C    basis set group =>   1
Atom   1C    basis set group =>   1
Atom   2C    basis set group =>   1
Atom   3C    basis set group =>   1
Atom   4C    basis set group =>   1
Atom   5C    basis set group =>   1
Atom   6H    basis set group =>   2
Atom   7H    basis set group =>   2
Atom   8H    basis set group =>   2
Atom   9H    basis set group =>   2
Atom  10H    basis set group =>   2
Atom  11C    basis set group =>   1
Atom  12N    basis set group =>   3
Atom  13H    basis set group =>   2
Atom  14H    basis set group =>   2
Atom  15H    basis set group =>   2
Atom  16H    basis set group =>   2
Atom  17Cu   basis set group =>   4


           ************************************************************
           *        Program running with 32 parallel MPI-processes    *
           *              working on a shared directory               *
           ************************************************************
------------------------------------------------------------------------------
                           ORCA GTO INTEGRAL CALCULATION
                           -- RI-GTO INTEGRALS CHOSEN --
------------------------------------------------------------------------------
------------------------------------------------------------------------------
                   ___                                                        
                  /   \      - P O W E R E D   B Y -                         
                 /     \                                                     
                 |  |  |   _    _      __       _____    __    __             
                 |  |  |  | |  | |    /  \     |  _  \  |  |  /  |          
                  \  \/   | |  | |   /    \    | | | |  |  | /  /          
                 / \  \   | |__| |  /  /\  \   | |_| |  |  |/  /          
                |  |  |   |  __  | /  /__\  \  |    /   |      \           
                |  |  |   | |  | | |   __   |  |    \   |  |\   \          
                \     /   | |  | | |  |  |  |  | |\  \  |  | \   \       
                 \___/    |_|  |_| |__|  |__|  |_| \__\ |__|  \__/        
                                                                              
                      - O R C A' S   B I G   F R I E N D -                    
                                      &                                       
                       - I N T E G R A L  F E E D E R -                       
                                                                              
 v1 FN, 2020, v2 2021                                                         
------------------------------------------------------------------------------


Reading SHARK input file orca.SHARKINP.tmp ... ok
----------------------
SHARK INTEGRAL PACKAGE
----------------------

Number of atoms                             ...     18
Number of basis functions                   ...    347
Number of shells                            ...    139
Maximum angular momentum                    ...      3
Integral batch strategy                     ... SHARK/LIBINT Hybrid
RI-J (if used) integral strategy            ... SPLIT-RIJ (Revised 2003 algorithm where possible)
Printlevel                                  ...      1
Contraction scheme used                     ... SEGMENTED contraction
Coulomb Range Separation                    ... NOT USED
Exchange Range Separation                   ... NOT USED
Finite Nucleus Model                        ... NOT USED
Auxiliary Coulomb fitting basis             ... AVAILABLE
   # of basis functions in Aux-J            ...    582
   # of shells in Aux-J                     ...    188
   Maximum angular momentum in Aux-J        ...      4
Auxiliary J/K fitting basis                 ... NOT available
Auxiliary Correlation fitting basis         ... NOT available
Auxiliary 'external' fitting basis          ... NOT available
Integral threshold                          ...     2.500000e-11
Primitive cut-off                           ...     2.500000e-12
Primitive pair pre-selection threshold      ...     2.500000e-12

Calculating pre-screening integrals         ... done (  0.2 sec) Dimension = 139
Organizing shell pair data                  ... done (  0.6 sec)
Shell pair information
Total number of shell pairs                 ...      9730
Shell pairs after pre-screening             ...      8571
Total number of primitive shell pairs       ...     31637
Primitive shell pairs kept                  ...     20063
          la=0 lb=0:   2290 shell pairs
          la=1 lb=0:   2375 shell pairs
          la=1 lb=1:    641 shell pairs
          la=2 lb=0:   1313 shell pairs
          la=2 lb=1:    683 shell pairs
          la=2 lb=2:    198 shell pairs
          la=3 lb=0:    566 shell pairs
          la=3 lb=1:    300 shell pairs
          la=3 lb=2:    165 shell pairs
          la=3 lb=3:     40 shell pairs

Calculating one electron integrals          ... done (  0.4 sec)
Calculating RI/J V-Matrix + Cholesky decomp.... done (  2.0 sec)
Calculating Nuclear repulsion               ... done (  0.0 sec) ENN=    597.223914072429 Eh

SHARK setup successfully completed in   5.3 seconds

Maximum memory used throughout the entire GTOINT-calculation: 25.5 MB


           ************************************************************
           *        Program running with 32 parallel MPI-processes    *
           *              working on a shared directory               *
           ************************************************************
-------------------------------------------------------------------------------
                                 ORCA SCF
-------------------------------------------------------------------------------

------------
SCF SETTINGS
------------
Hamiltonian:
 Density Functional     Method          .... DFT(GTOs)
 Exchange Functional    Exchange        .... B88
   X-Alpha parameter    XAlpha          ....  0.666667
   Becke's b parameter  XBeta           ....  0.004200
 Correlation Functional Correlation     .... LYP
 LDA part of GGA corr.  LDAOpt          .... VWN-5
 Gradients option       PostSCFGGA      .... off
 Hybrid DFT is turned on
   Fraction HF Exchange ScalHFX         ....  0.200000
   Scaling of DF-GGA-X  ScalDFX         ....  0.720000
   Scaling of DF-GGA-C  ScalDFC         ....  0.810000
   Scaling of DF-LDA-C  ScalLDAC        ....  1.000000
   Perturbative correction              ....  0.000000
   Density functional embedding theory  .... OFF
   NL short-range parameter             ....  4.800000
 RI-approximation to the Coulomb term is turned on
   Number of AuxJ basis functions       .... 582
   RIJ-COSX (HFX calculated with COS-X)).... on


General Settings:
 Integral files         IntName         .... orca
 Hartree-Fock type      HFTyp           .... RHF
 Total Charge           Charge          ....    1
 Multiplicity           Mult            ....    1
 Number of Electrons    NEL             ....   86
 Basis Dimension        Dim             ....  347
 Nuclear Repulsion      ENuc            ....    597.2239140724 Eh

Convergence Acceleration:
 DIIS                   CNVDIIS         .... on
   Start iteration      DIISMaxIt       ....    12
   Startup error        DIISStart       ....  0.200000
   # of expansion vecs  DIISMaxEq       ....     5
   Bias factor          DIISBfac        ....   1.050
   Max. coefficient     DIISMaxC        ....  10.000
 Trust-Rad. Augm. Hess. CNVTRAH         .... auto
   Auto Start mean grad. ratio tolernc. ....  1.125000
   Auto Start start iteration           ....    20
   Auto Start num. interpolation iter.  ....    10
   Max. Number of Micro iterations      ....    16
   Max. Number of Macro iterations      .... Maxiter - #DIIS iter
   Number of Davidson start vectors     ....     2
   Converg. threshold I  (grad. norm)   ....   1.000e-05
   Converg. threshold II (energy diff.) ....   1.000e-08
   Grad. Scal. Fac. for Micro threshold ....   0.100
   Minimum threshold for Micro iter.    ....   0.010
   NR start threshold (gradient norm)   ....   0.001
   Initial trust radius                 ....   0.400
   Minimum AH scaling param. (alpha)    ....   1.000
   Maximum AH scaling param. (alpha)    .... 1000.000
   Orbital update algorithm             .... Taylor
   White noise on init. David. guess    .... on
   Maximum white noise                  ....   0.010
   Quad. conv. algorithm                .... NR
 SOSCF                  CNVSOSCF        .... off
 Level Shifting         CNVShift        .... on
   Level shift para.    LevelShift      ....    0.2500
   Turn off err/grad.   ShiftErr        ....    0.0010
 Zerner damping         CNVZerner       .... off
 Static damping         CNVDamp         .... on
   Fraction old density DampFac         ....    0.7000
   Max. Damping (<1)    DampMax         ....    0.9800
   Min. Damping (>=0)   DampMin         ....    0.0000
   Turn off err/grad.   DampErr         ....    0.1000
 Fernandez-Rico         CNVRico         .... off

SCF Procedure:
 Maximum # iterations   MaxIter         ....  2000
 SCF integral mode      SCFMode         .... Direct
   Integral package                     .... SHARK and LIBINT hybrid scheme
 Reset frequency        DirectResetFreq ....    15
 Integral Threshold     Thresh          ....  2.500e-11 Eh
 Primitive CutOff       TCut            ....  2.500e-12 Eh

Convergence Tolerance:
 Convergence Check Mode ConvCheckMode   .... Total+1el-Energy
 Convergence forced     ConvForced      .... 0
 Energy Change          TolE            ....  1.000e-08 Eh
 1-El. energy change                    ....  1.000e-05 Eh
 DIIS Error             TolErr          ....  5.000e-07


Diagonalization of the overlap matrix:
Smallest eigenvalue                        ... 9.021e-06
Time for diagonalization                   ...    0.079 sec
Threshold for overlap eigenvalues          ... 1.000e-08
Number of eigenvalues below threshold      ... 0
Time for construction of square roots      ...    0.612 sec
Total time needed                          ...    1.180 sec

Time for model grid setup =    2.203 sec

------------------------------
INITIAL GUESS: MODEL POTENTIAL
------------------------------
Loading Hartree-Fock densities                     ... done
Calculating cut-offs                               ... done
Initializing the effective Hamiltonian             ... done
Setting up the integral package (SHARK)            ... done
Starting the Coulomb interaction                   ... done (   2.5 sec)
Reading the grid                                   ... done
Mapping shells                                     ... done
Starting the XC term evaluation                    ... done (   0.3 sec)
  promolecular density results
     # of electrons  =     86.988108695
     EX              =   -110.983633147
     EC              =     -3.294743976
     EX+EC           =   -114.278377123
Transforming the Hamiltonian                       ... done (   1.3 sec)
Diagonalizing the Hamiltonian                      ... done (   1.2 sec)
Back transforming the eigenvectors                 ... done (   0.1 sec)
Now organizing SCF variables                       ... done
                      ------------------
                      INITIAL GUESS DONE (   8.5 sec)
                      ------------------
-------------------
DFT GRID GENERATION
-------------------

General Integration Accuracy     IntAcc      ... 4.388
Radial Grid Type                 RadialGrid  ... OptM3 with GC (2021)
Angular Grid (max. ang.)         AngularGrid ... 4 (Lebedev-302)
Angular grid pruning method      GridPruning ... 4 (adaptive)
Weight generation scheme         WeightScheme... Becke
Basis function cutoff            BFCut       ... 1.0000e-11
Integration weight cutoff        WCut        ... 1.0000e-14
Angular grids for H and He will be reduced by one unit
Partially contracted basis set               ... off
Rotationally invariant grid construction     ... off

Total number of grid points                  ...    88222
Total number of batches                      ...     1388
Average number of points per batch           ...       63
Average number of grid points per atom       ...     4901
Time for grid setup =    3.730 sec

--------------------
COSX GRID GENERATION
--------------------

GRIDX 1
-------
General Integration Accuracy     IntAcc      ... 3.816
Radial Grid Type                 RadialGrid  ... OptM3 with GC (2021)
Angular Grid (max. ang.)         AngularGrid ... 1 (Lebedev-50)
Angular grid pruning method      GridPruning ... 4 (adaptive)
Weight generation scheme         WeightScheme... Becke
Basis function cutoff            BFCut       ... 1.0000e-11
Integration weight cutoff        WCut        ... 1.0000e-14
Angular grids for H and He will be reduced by one unit
Partially contracted basis set               ... on
Rotationally invariant grid construction     ... off

Total number of grid points                  ...    11051
Total number of batches                      ...      180
Average number of points per batch           ...       61
Average number of grid points per atom       ...      614
UseSFitting                                  ... on

GRIDX 2
-------
General Integration Accuracy     IntAcc      ... 4.020
Radial Grid Type                 RadialGrid  ... OptM3 with GC (2021)
Angular Grid (max. ang.)         AngularGrid ... 2 (Lebedev-110)
Angular grid pruning method      GridPruning ... 4 (adaptive)
Weight generation scheme         WeightScheme... Becke
Basis function cutoff            BFCut       ... 1.0000e-11
Integration weight cutoff        WCut        ... 1.0000e-14
Angular grids for H and He will be reduced by one unit
Partially contracted basis set               ... on
Rotationally invariant grid construction     ... off

Total number of grid points                  ...    23792
Total number of batches                      ...      380
Average number of points per batch           ...       62
Average number of grid points per atom       ...     1322
UseSFitting                                  ... on

GRIDX 3
-------
General Integration Accuracy     IntAcc      ... 4.338
Radial Grid Type                 RadialGrid  ... OptM3 with GC (2021)
Angular Grid (max. ang.)         AngularGrid ... 3 (Lebedev-194)
Angular grid pruning method      GridPruning ... 4 (adaptive)
Weight generation scheme         WeightScheme... Becke
Basis function cutoff            BFCut       ... 1.0000e-11
Integration weight cutoff        WCut        ... 1.0000e-14
Angular grids for H and He will be reduced by one unit
Partially contracted basis set               ... on
Rotationally invariant grid construction     ... off

Total number of grid points                  ...    52388
Total number of batches                      ...      830
Average number of points per batch           ...       63
Average number of grid points per atom       ...     2910
UseSFitting                                  ... on

Time for X-Grid setup             =    8.524 sec


--------------------
CPCM SOLVATION MODEL
--------------------
CPCM parameters:
  Epsilon                                         ...       6.0200
  Refrac                                          ...       1.3723
  Rsolv                                           ...       1.3000
  Surface type                                    ... GAUSSIAN VDW
  Epsilon function type                           ...         CPCM
Radii:
 Radius for C  used is    3.8550 Bohr (=   2.0400 Ang.)
 Radius for H  used is    2.4944 Bohr (=   1.3200 Ang.)
 Radius for N  used is    3.5149 Bohr (=   1.8600 Ang.)
 Radius for Cu used is    3.1747 Bohr (=   1.6800 Ang.)
Calculating surface                               ...        done! (  0.0s)
GEPOL surface points                              ...         1069
GEPOL Volume                                      ...    1110.1865
GEPOL Surface-area                                ...     646.9836
Calculating surface distance matrix               ...        done! (  0.0s)
Performing Cholesky decomposition & store         ...        done! (  7.0s)
Overall time for CPCM initialization              ...                 7.0s
--------------
SCF ITERATIONS
--------------
ITER       Energy         Delta-E        Max-DP      RMS-DP      [F,P]     Damp
               ***  Starting incremental Fock matrix formation  ***
  0  -1966.7502797850   0.000000000000 0.12069100  0.00162641  0.2573309 0.7000
  1  -1966.8843610680  -0.134081283052 0.09249543  0.00092022  0.1067969 0.7000
                               ***Turning on DIIS***
  2  -1966.9298890921  -0.045528024020 0.11711809  0.00203035  0.0766998 0.0000
  3  -1967.0021030560  -0.072213963903 0.12125179  0.00102244  0.0650633 0.0000
  4  -1967.0232429296  -0.021139873596 0.01983763  0.00026608  0.0351759 0.0000
  5  -1967.0247268955  -0.001483965923 0.01533507  0.00016176  0.0206558 0.0000
  6  -1967.0252619119  -0.000535016456 0.00444489  0.00007254  0.0069115 0.0000
  7  -1967.0253452015  -0.000083289586 0.00291962  0.00003866  0.0018867 0.0000
  8  -1967.0253664063  -0.000021204732 0.00319388  0.00005133  0.0008241 0.0000
               *** Restarting incremental Fock matrix formation ***
                                   *** Resetting DIIS ***
  9  -1967.0254114990  -0.000045092743 0.00150467  0.00002033  0.0002729 0.0000
 10  -1967.0254123568  -0.000000857767 0.00028326  0.00000605  0.0005005 0.0000
 11  -1967.0254133149  -0.000000958131 0.00031536  0.00000484  0.0004490 0.0000
 12  -1967.0254133849  -0.000000070030 0.00020289  0.00000255  0.0004710 0.0000
 13  -1967.0254136470  -0.000000262068 0.00020728  0.00000282  0.0001501 0.0000
 14  -1967.0254136968  -0.000000049770 0.00011674  0.00000167  0.0000319 0.0000
 15  -1967.0254137043  -0.000000007522 0.00012884  0.00000191  0.0000112 0.0000
 16  -1967.0254137069  -0.000000002601 0.00026987  0.00000345  0.0000051 0.0000
 17  -1967.0254137050   0.000000001880 0.00009620  0.00000153  0.0000045 0.0000
 18  -1967.0254136977   0.000000007293 0.00004517  0.00000073  0.0000071 0.0000
 19  -1967.0254136961   0.000000001587 0.00005405  0.00000109  0.0000029 0.0000
                            ***DIIS convergence achieved***

               *****************************************************
               *                     SUCCESS                       *
               *           SCF CONVERGED AFTER  20 CYCLES          *
               *****************************************************

Old exchange energy                            =    -22.238127826 Eh
New exchange energy                            =    -22.238122450 Eh
Exchange energy change after final integration =      0.000005376 Eh
Total energy after final integration           =  -1967.025408319 Eh
Final COS-X integration done in                =     2.993 sec

----------------
TOTAL SCF ENERGY
----------------

Total Energy       :        -1967.02540832 Eh          -53525.48254 eV

Components:
Nuclear Repulsion  :          597.22391407 Eh           16251.28890 eV
Electronic Energy  :        -2564.24932239 Eh          -69776.77144 eV
One Electron Energy:        -3897.25961664 Eh         -106049.82564 eV
Two Electron Energy:         1333.01029425 Eh           36273.05419 eV
Max COSX asymmetry :            0.00000173 Eh               0.00005 eV
CPCM Dielectric    :           -0.09382638 Eh              -2.55315 eV

Virial components:
Potential Energy   :        -3929.64805005 Eh         -106931.15972 eV
Kinetic Energy     :         1962.62264173 Eh           53405.67717 eV
Virial Ratio       :            2.00224331


DFT components:
N(Alpha)           :       42.999997267528 electrons
N(Beta)            :       42.999997267528 electrons
N(Total)           :       85.999994535055 electrons
E(X)               :      -88.701328987172 Eh       
E(C)               :       -3.842200562785 Eh       
E(XC)              :      -92.543529549957 Eh       
DFET-embed. en.    :        0.000000000000 Eh       
CPCM Solvation Model Properties:
Surface-charge          :           -1.03373636
Charge-correction       :            0.00461037 Eh               0.12545 eV
Free-energy (cav+disp)  :  This term is not implemented in the current solvation scheme

---------------
SCF CONVERGENCE
---------------

  Last Energy change         ...    1.8804e-09  Tolerance :   1.0000e-08
  Last MAX-Density change    ...    0.0000e+00  Tolerance :   1.0000e-07
  Last RMS-Density change    ...    0.0000e+00  Tolerance :   5.0000e-09
  Last DIIS Error            ...    8.1695e-07  Tolerance :   5.0000e-07

             **** THE GBW FILE WAS UPDATED (orca.gbw) ****
             **** DENSITY orca.scfp WAS UPDATED ****
             **** ENERGY FILE WAS UPDATED (orca.en.tmp) ****
             **** THE GBW FILE WAS UPDATED (orca.gbw) ****
             **** DENSITY orca.scfp WAS UPDATED ****
----------------
ORBITAL ENERGIES
----------------

  NO   OCC          E(Eh)            E(eV) 
   0   2.0000    -323.110788     -8792.2915 
   1   2.0000     -38.909251     -1058.7746 
   2   2.0000     -34.114298      -928.2972 
   3   2.0000     -34.113441      -928.2739 
   4   2.0000     -34.112485      -928.2479 
   5   2.0000     -14.367688      -390.9647 
   6   2.0000     -10.299322      -280.2588 
   7   2.0000     -10.239262      -278.6245 
   8   2.0000     -10.221420      -278.1390 
   9   2.0000     -10.220876      -278.1242 
  10   2.0000     -10.219771      -278.0941 
  11   2.0000     -10.213162      -277.9143 
  12   2.0000     -10.211895      -277.8798 
  13   2.0000      -4.393830      -119.5622 
  14   2.0000      -2.895524       -78.7912 
  15   2.0000      -2.888399       -78.5973 
  16   2.0000      -2.874066       -78.2073 
  17   2.0000      -0.946187       -25.7471 
  18   2.0000      -0.894930       -24.3523 
  19   2.0000      -0.803179       -21.8556 
  20   2.0000      -0.785288       -21.3688 
  21   2.0000      -0.702295       -19.1104 
  22   2.0000      -0.646258       -17.5856 
  23   2.0000      -0.618205       -16.8222 
  24   2.0000      -0.558839       -15.2068 
  25   2.0000      -0.529724       -14.4145 
  26   2.0000      -0.522728       -14.2242 
  27   2.0000      -0.494269       -13.4498 
  28   2.0000      -0.479797       -13.0559 
  29   2.0000      -0.460215       -12.5231 
  30   2.0000      -0.455409       -12.3923 
  31   2.0000      -0.418455       -11.3867 
  32   2.0000      -0.396894       -10.8000 
  33   2.0000      -0.395522       -10.7627 
  34   2.0000      -0.385234       -10.4827 
  35   2.0000      -0.381034       -10.3685 
  36   2.0000      -0.375162       -10.2087 
  37   2.0000      -0.369053       -10.0425 
  38   2.0000      -0.366900        -9.9839 
  39   2.0000      -0.337523        -9.1845 
  40   2.0000      -0.310130        -8.4391 
  41   2.0000      -0.295441        -8.0394 
  42   2.0000      -0.282860        -7.6970 
  43   0.0000      -0.197780        -5.3819 
  44   0.0000      -0.072218        -1.9652 
  45   0.0000      -0.052675        -1.4334 
  46   0.0000      -0.044362        -1.2072 
  47   0.0000       0.006731         0.1831 
  48   0.0000       0.023650         0.6436 
  49   0.0000       0.041267         1.1229 
  50   0.0000       0.055402         1.5076 
  51   0.0000       0.072493         1.9726 
  52   0.0000       0.072626         1.9762 
  53   0.0000       0.080346         2.1863 
  54   0.0000       0.087703         2.3865 
  55   0.0000       0.099077         2.6960 
  56   0.0000       0.106397         2.8952 
  57   0.0000       0.115753         3.1498 
  58   0.0000       0.119908         3.2629 
  59   0.0000       0.127441         3.4678 
  60   0.0000       0.145038         3.9467 
  61   0.0000       0.151712         4.1283 
  62   0.0000       0.170251         4.6328 
  63   0.0000       0.178938         4.8691 
  64   0.0000       0.183572         4.9952 
  65   0.0000       0.191724         5.2171 
  66   0.0000       0.198930         5.4131 
  67   0.0000       0.200678         5.4607 
  68   0.0000       0.209988         5.7141 
  69   0.0000       0.224154         6.0996 
  70   0.0000       0.224479         6.1084 
  71   0.0000       0.229988         6.2583 
  72   0.0000       0.240996         6.5578 
  73   0.0000       0.250653         6.8206 
  74   0.0000       0.258328         7.0295 
  75   0.0000       0.266711         7.2576 
  76   0.0000       0.280801         7.6410 
  77   0.0000       0.300947         8.1892 
  78   0.0000       0.304787         8.2937 
  79   0.0000       0.315729         8.5914 
  80   0.0000       0.321130         8.7384 
  81   0.0000       0.323728         8.8091 
  82   0.0000       0.338599         9.2137 
  83   0.0000       0.345130         9.3915 
  84   0.0000       0.352112         9.5815 
  85   0.0000       0.361650         9.8410 
  86   0.0000       0.385387        10.4869 
  87   0.0000       0.392947        10.6926 
  88   0.0000       0.394758        10.7419 
  89   0.0000       0.404709        11.0127 
  90   0.0000       0.414410        11.2767 
  91   0.0000       0.420287        11.4366 
  92   0.0000       0.425996        11.5919 
  93   0.0000       0.429882        11.6977 
  94   0.0000       0.449971        12.2443 
  95   0.0000       0.457483        12.4488 
  96   0.0000       0.461901        12.5690 
  97   0.0000       0.467546        12.7226 
  98   0.0000       0.474778        12.9194 
  99   0.0000       0.480008        13.0617 
 100   0.0000       0.497462        13.5366 
 101   0.0000       0.509420        13.8620 
 102   0.0000       0.527574        14.3560 
 103   0.0000       0.540408        14.7052 
 104   0.0000       0.561673        15.2839 
 105   0.0000       0.592171        16.1138 
 106   0.0000       0.607601        16.5337 
 107   0.0000       0.620421        16.8825 
 108   0.0000       0.636061        17.3081 
 109   0.0000       0.648016        17.6334 
 110   0.0000       0.654871        17.8199 
 111   0.0000       0.675611        18.3843 
 112   0.0000       0.695833        18.9346 
 113   0.0000       0.703001        19.1296 
 114   0.0000       0.712321        19.3832 
 115   0.0000       0.731526        19.9058 
 116   0.0000       0.736139        20.0314 
 117   0.0000       0.773748        21.0548 
 118   0.0000       0.782282        21.2870 
 119   0.0000       0.792310        21.5599 
 120   0.0000       0.815535        22.1918 
 121   0.0000       0.848471        23.0881 
 122   0.0000       0.855456        23.2781 
 123   0.0000       0.860363        23.4117 
 124   0.0000       0.870453        23.6862 
 125   0.0000       0.888703        24.1829 
 126   0.0000       0.908157        24.7122 
 127   0.0000       0.919384        25.0177 
 128   0.0000       0.950164        25.8553 
 129   0.0000       0.958008        26.0687 
 130   0.0000       0.969230        26.3741 
 131   0.0000       0.989616        26.9288 
 132   0.0000       1.025600        27.9080 
 133   0.0000       1.033115        28.1125 
 134   0.0000       1.044000        28.4087 
 135   0.0000       1.050465        28.5846 
 136   0.0000       1.090869        29.6840 
 137   0.0000       1.106684        30.1144 
 138   0.0000       1.129321        30.7304 
 139   0.0000       1.150959        31.3192 
 140   0.0000       1.173773        31.9400 
 141   0.0000       1.180895        32.1338 
 142   0.0000       1.190922        32.4066 
 143   0.0000       1.199821        32.6488 
 144   0.0000       1.222273        33.2597 
 145   0.0000       1.232999        33.5516 
 146   0.0000       1.245512        33.8921 
 147   0.0000       1.258525        34.2462 
 148   0.0000       1.269306        34.5396 
 149   0.0000       1.294151        35.2156 
 150   0.0000       1.334721        36.3196 
 151   0.0000       1.350175        36.7401 
 152   0.0000       1.368583        37.2410 
 153   0.0000       1.383195        37.6386 
 154   0.0000       1.395211        37.9656 
 155   0.0000       1.423903        38.7464 
 156   0.0000       1.436841        39.0984 
 157   0.0000       1.451719        39.5033 
 158   0.0000       1.457908        39.6717 
 159   0.0000       1.471767        40.0488 
 160   0.0000       1.513441        41.1828 
 161   0.0000       1.529045        41.6074 
 162   0.0000       1.540984        41.9323 
 163   0.0000       1.553621        42.2762 
 164   0.0000       1.569466        42.7073 
 165   0.0000       1.587442        43.1965 
 166   0.0000       1.602735        43.6126 
 167   0.0000       1.625003        44.2186 
 168   0.0000       1.648023        44.8450 
 169   0.0000       1.651743        44.9462 
 170   0.0000       1.656631        45.0792 
 171   0.0000       1.665462        45.3195 
 172   0.0000       1.679599        45.7042 
 173   0.0000       1.685151        45.8553 
 174   0.0000       1.731614        47.1196 
 175   0.0000       1.748272        47.5729 
 176   0.0000       1.779316        48.4177 
 177   0.0000       1.810164        49.2571 
 178   0.0000       1.822687        49.5978 
 179   0.0000       1.859783        50.6073 
 180   0.0000       1.868744        50.8511 
 181   0.0000       1.890914        51.4544 
 182   0.0000       1.923954        52.3534 
 183   0.0000       1.943861        52.8951 
 184   0.0000       1.947437        52.9925 
 185   0.0000       1.954122        53.1744 
 186   0.0000       1.981244        53.9124 
 187   0.0000       2.014297        54.8118 
 188   0.0000       2.026121        55.1335 
 189   0.0000       2.040190        55.5164 
 190   0.0000       2.059269        56.0355 
 191   0.0000       2.063862        56.1605 
 192   0.0000       2.091112        56.9020 
 193   0.0000       2.117019        57.6070 
 194   0.0000       2.152823        58.5813 
 195   0.0000       2.176590        59.2280 
 196   0.0000       2.188547        59.5534 
 197   0.0000       2.200256        59.8720 
 198   0.0000       2.208298        60.0909 
 199   0.0000       2.215063        60.2749 
 200   0.0000       2.238343        60.9084 
 201   0.0000       2.245039        61.0906 
 202   0.0000       2.294978        62.4495 
 203   0.0000       2.331741        63.4499 
 204   0.0000       2.378830        64.7313 
 205   0.0000       2.401490        65.3479 
 206   0.0000       2.441195        66.4283 
 207   0.0000       2.458030        66.8864 
 208   0.0000       2.476779        67.3966 
 209   0.0000       2.495405        67.9034 
 210   0.0000       2.510291        68.3085 
 211   0.0000       2.540389        69.1275 
 212   0.0000       2.549590        69.3779 
 213   0.0000       2.563602        69.7592 
 214   0.0000       2.578402        70.1619 
 215   0.0000       2.587289        70.4037 
 216   0.0000       2.595626        70.6306 
 217   0.0000       2.612068        71.0780 
 218   0.0000       2.620366        71.3038 
 219   0.0000       2.635587        71.7180 
 220   0.0000       2.645449        71.9863 
 221   0.0000       2.655959        72.2723 
 222   0.0000       2.666448        72.5577 
 223   0.0000       2.693624        73.2972 
 224   0.0000       2.718869        73.9842 
 225   0.0000       2.736193        74.4556 
 226   0.0000       2.737470        74.4903 
 227   0.0000       2.763693        75.2039 
 228   0.0000       2.775012        75.5119 
 229   0.0000       2.798930        76.1628 
 230   0.0000       2.802079        76.2484 
 231   0.0000       2.815933        76.6254 
 232   0.0000       2.821946        76.7890 
 233   0.0000       2.846778        77.4648 
 234   0.0000       2.850953        77.5784 
 235   0.0000       2.884290        78.4855 
 236   0.0000       2.915944        79.3469 
 237   0.0000       2.945129        80.1410 
 238   0.0000       2.957405        80.4751 
 239   0.0000       2.985658        81.2439 
 240   0.0000       2.993218        81.4496 
 241   0.0000       3.014808        82.0371 
 242   0.0000       3.032174        82.5097 
 243   0.0000       3.076963        83.7284 
 244   0.0000       3.083975        83.9192 
 245   0.0000       3.102910        84.4345 
 246   0.0000       3.108460        84.5855 
 247   0.0000       3.114106        84.7391 
 248   0.0000       3.134633        85.2977 
 249   0.0000       3.139052        85.4179 
 250   0.0000       3.145216        85.5857 
 251   0.0000       3.172639        86.3319 
 252   0.0000       3.178741        86.4979 
 253   0.0000       3.222754        87.6956 
 254   0.0000       3.225141        87.7605 
 255   0.0000       3.247326        88.3642 
 256   0.0000       3.258491        88.6680 
 257   0.0000       3.283281        89.3426 
 258   0.0000       3.296428        89.7004 
 259   0.0000       3.299834        89.7931 
 260   0.0000       3.324966        90.4769 
 261   0.0000       3.335000        90.7500 
 262   0.0000       3.345388        91.0326 
 263   0.0000       3.352817        91.2348 
 264   0.0000       3.362435        91.4965 
 265   0.0000       3.406990        92.7089 
 266   0.0000       3.437684        93.5441 
 267   0.0000       3.447346        93.8070 
 268   0.0000       3.464910        94.2850 
 269   0.0000       3.474888        94.5565 
 270   0.0000       3.489559        94.9557 
 271   0.0000       3.529924        96.0541 
 272   0.0000       3.540248        96.3350 
 273   0.0000       3.560635        96.8898 
 274   0.0000       3.580949        97.4426 
 275   0.0000       3.615781        98.3904 
 276   0.0000       3.637894        98.9921 
 277   0.0000       3.645750        99.2059 
 278   0.0000       3.656115        99.4880 
 279   0.0000       3.695227       100.5523 
 280   0.0000       3.700477       100.6951 
 281   0.0000       3.704787       100.8124 
 282   0.0000       3.728997       101.4712 
 283   0.0000       3.789904       103.1285 
 284   0.0000       3.808374       103.6311 
 285   0.0000       3.844825       104.6230 
 286   0.0000       3.877841       105.5214 
 287   0.0000       3.897755       106.0633 
 288   0.0000       3.910037       106.3975 
 289   0.0000       3.964600       107.8823 
 290   0.0000       3.987410       108.5029 
 291   0.0000       4.006805       109.0307 
 292   0.0000       4.020256       109.3967 
 293   0.0000       4.094551       111.4184 
 294   0.0000       4.117682       112.0478 
 295   0.0000       4.132615       112.4542 
 296   0.0000       4.155905       113.0879 
 297   0.0000       4.159667       113.1903 
 298   0.0000       4.168678       113.4355 
 299   0.0000       4.189616       114.0053 
 300   0.0000       4.211721       114.6067 
 301   0.0000       4.247001       115.5668 
 302   0.0000       4.257676       115.8572 
 303   0.0000       4.274573       116.3170 
 304   0.0000       4.308115       117.2298 
 305   0.0000       4.338828       118.0655 
 306   0.0000       4.429924       120.5444 
 307   0.0000       4.500434       122.4630 
 308   0.0000       4.559912       124.0815 
 309   0.0000       4.616889       125.6319 
 310   0.0000       4.631951       126.0418 
 311   0.0000       4.665723       126.9608 
 312   0.0000       4.678646       127.3124 
 313   0.0000       4.748628       129.2167 
 314   0.0000       4.780434       130.0822 
 315   0.0000       4.792395       130.4077 
 316   0.0000       4.813161       130.9728 
 317   0.0000       4.862017       132.3022 
 318   0.0000       4.902433       133.4020 
 319   0.0000       4.969808       135.2354 
 320   0.0000       4.994841       135.9165 
 321   0.0000       5.041458       137.1851 
 322   0.0000       5.126357       139.4953 
 323   0.0000       5.165147       140.5508 
 324   0.0000       5.219935       142.0416 
 325   0.0000       5.239293       142.5684 
 326   0.0000       5.320079       144.7667 
 327   0.0000       5.340901       145.3333 
 328   0.0000       5.415923       147.3748 
 329   0.0000       5.502292       149.7250 
 330   0.0000       5.576528       151.7450 
 331   0.0000       5.688044       154.7796 
 332   0.0000       5.693221       154.9204 
 333   0.0000       5.694175       154.9464 
 334   0.0000       5.715070       155.5150 
 335   0.0000       5.730926       155.9464 
 336   0.0000       5.739934       156.1916 
 337   0.0000       5.780436       157.2937 
 338   0.0000       5.817021       158.2892 
 339   0.0000      21.930607       596.7622 
 340   0.0000      22.304680       606.9412 
 341   0.0000      22.509418       612.5124 
 342   0.0000      22.537760       613.2836 
 343   0.0000      22.639156       616.0427 
 344   0.0000      22.707940       617.9145 
 345   0.0000      23.100558       628.5981 
 346   0.0000      31.882906       867.5780 

                    ********************************
                    * MULLIKEN POPULATION ANALYSIS *
                    ********************************

-----------------------
MULLIKEN ATOMIC CHARGES
-----------------------
   0 C :   -0.105500
   1 C :   -0.199423
   2 C :    0.115370
   3 C :   -0.198333
   4 C :   -0.108991
   5 C :   -0.096475
   6 H :    0.157450
   7 H :    0.162858
   8 H :    0.124249
   9 H :    0.153446
  10 H :    0.158917
  11 C :    0.283662
  12 N :   -0.538173
  13 H :    0.303026
  14 H :    0.270095
  15 H :    0.174499
  16 H :   -0.048784
  17 Cu:    0.392106
Sum of atomic charges:    1.0000000

--------------------------------
MULLIKEN REDUCED ORBITAL CHARGES
--------------------------------
  0 C s       :     3.210370  s :     3.210370
      pz      :     0.944635  p :     2.809613
      px      :     0.943821
      py      :     0.921157
      dz2     :     0.013394  d :     0.078357
      dxz     :     0.021733
      dyz     :     0.011181
      dx2y2   :     0.017859
      dxy     :     0.014191
      f0      :     0.001092  f :     0.007160
      f+1     :     0.000645
      f-1     :     0.000858
      f+2     :     0.001022
      f-2     :     0.001562
      f+3     :     0.001388
      f-3     :     0.000593
  1 C s       :     3.338798  s :     3.338798
      pz      :     0.944498  p :     2.770539
      px      :     0.898627
      py      :     0.927414
      dz2     :     0.012546  d :     0.082832
      dxz     :     0.020135
      dyz     :     0.015638
      dx2y2   :     0.019545
      dxy     :     0.014968
      f0      :     0.000744  f :     0.007255
      f+1     :     0.001098
      f-1     :     0.000732
      f+2     :     0.000937
      f-2     :     0.001548
      f+3     :     0.001372
      f-3     :     0.000825
  2 C s       :     3.117529  s :     3.117529
      pz      :     0.848511  p :     2.641258
      px      :     0.893757
      py      :     0.898990
      dz2     :     0.028614  d :     0.116144
      dxz     :     0.020691
      dyz     :     0.016368
      dx2y2   :     0.026507
      dxy     :     0.023964
      f0      :     0.001141  f :     0.009699
      f+1     :     0.001449
      f-1     :     0.001012
      f+2     :     0.001231
      f-2     :     0.002192
      f+3     :     0.001327
      f-3     :     0.001347
  3 C s       :     3.279344  s :     3.279344
      pz      :     0.965698  p :     2.830026
      px      :     0.976153
      py      :     0.888175
      dz2     :     0.013513  d :     0.081743
      dxz     :     0.022670
      dyz     :     0.011544
      dx2y2   :     0.021099
      dxy     :     0.012917
      f0      :     0.001094  f :     0.007220
      f+1     :     0.000677
      f-1     :     0.000910
      f+2     :     0.001018
      f-2     :     0.001524
      f+3     :     0.001382
      f-3     :     0.000615
  4 C s       :     3.216260  s :     3.216260
      pz      :     0.954206  p :     2.806566
      px      :     0.900114
      py      :     0.952246
      dz2     :     0.013170  d :     0.078951
      dxz     :     0.017664
      dyz     :     0.013970
      dx2y2   :     0.018925
      dxy     :     0.015222
      f0      :     0.000838  f :     0.007215
      f+1     :     0.001021
      f-1     :     0.000726
      f+2     :     0.000919
      f-2     :     0.001583
      f+3     :     0.001394
      f-3     :     0.000734
  5 C s       :     3.229721  s :     3.229721
      pz      :     0.890663  p :     2.778130
      px      :     0.965100
      py      :     0.922366
      dz2     :     0.024411  d :     0.081469
      dxz     :     0.015515
      dyz     :     0.013279
      dx2y2   :     0.010662
      dxy     :     0.017602
      f0      :     0.000981  f :     0.007156
      f+1     :     0.001231
      f-1     :     0.000867
      f+2     :     0.000967
      f-2     :     0.001614
      f+3     :     0.000536
      f-3     :     0.000960
  6 H s       :     0.820170  s :     0.820170
      pz      :     0.008548  p :     0.022380
      px      :     0.009686
      py      :     0.004145
  7 H s       :     0.814947  s :     0.814947
      pz      :     0.003811  p :     0.022195
      px      :     0.011254
      py      :     0.007130
  8 H s       :     0.853303  s :     0.853303
      pz      :     0.009964  p :     0.022448
      px      :     0.003817
      py      :     0.008667
  9 H s       :     0.823740  s :     0.823740
      pz      :     0.008761  p :     0.022815
      px      :     0.009820
      py      :     0.004233
 10 H s       :     0.818708  s :     0.818708
      pz      :     0.009858  p :     0.022375
      px      :     0.003743
      py      :     0.008774
 11 C s       :     2.989974  s :     2.989974
      pz      :     0.852437  p :     2.593083
      px      :     0.806189
      py      :     0.934457
      dz2     :     0.023886  d :     0.124235
      dxz     :     0.023482
      dyz     :     0.017468
      dx2y2   :     0.030482
      dxy     :     0.028918
      f0      :     0.001232  f :     0.009045
      f+1     :     0.001822
      f-1     :     0.000771
      f+2     :     0.001122
      f-2     :     0.001674
      f+3     :     0.001271
      f-3     :     0.001154
 12 N s       :     3.601443  s :     3.601443
      pz      :     1.113042  p :     3.894965
      px      :     1.153372
      py      :     1.628551
      dz2     :     0.008429  d :     0.039425
      dxz     :     0.007998
      dyz     :     0.007709
      dx2y2   :     0.003843
      dxy     :     0.011445
      f0      :     0.000276  f :     0.002340
      f+1     :     0.000521
      f-1     :     0.000238
      f+2     :     0.000350
      f-2     :     0.000265
      f+3     :     0.000232
      f-3     :     0.000459
 13 H s       :     0.662420  s :     0.662420
      pz      :     0.016590  p :     0.034554
      px      :     0.006665
      py      :     0.011299
 14 H s       :     0.696069  s :     0.696069
      pz      :     0.006063  p :     0.033836
      px      :     0.015325
      py      :     0.012448
 15 H s       :     0.802077  s :     0.802077
      pz      :     0.004553  p :     0.023424
      px      :     0.004889
      py      :     0.013982
 16 H s       :     1.042208  s :     1.042208
      pz      :     0.002770  p :     0.006576
      px      :     0.001958
      py      :     0.001848
 17 Cus       :     6.795181  s :     6.795181
      pz      :     4.085668  p :    12.180822
      px      :     4.056802
      py      :     4.038352
      dz2     :     1.922816  d :     9.631792
      dxz     :     1.820244
      dyz     :     1.901434
      dx2y2   :     1.998761
      dxy     :     1.988536
      f0      :     0.000021  f :     0.000099
      f+1     :     0.000029
      f-1     :     0.000017
      f+2     :     0.000005
      f-2     :     0.000012
      f+3     :     0.000007
      f-3     :     0.000007


                     *******************************
                     * LOEWDIN POPULATION ANALYSIS *
                     *******************************

----------------------
LOEWDIN ATOMIC CHARGES
----------------------
   0 C :   -0.113570
   1 C :   -0.060733
   2 C :   -0.125021
   3 C :   -0.071210
   4 C :   -0.111736
   5 C :   -0.084501
   6 H :    0.156279
   7 H :    0.158191
   8 H :    0.164226
   9 H :    0.157405
  10 H :    0.156857
  11 C :   -0.191961
  12 N :   -0.101806
  13 H :    0.211705
  14 H :    0.192938
  15 H :    0.182578
  16 H :   -0.030568
  17 Cu:    0.510927

-------------------------------
LOEWDIN REDUCED ORBITAL CHARGES
-------------------------------
  0 C s       :     2.769902  s :     2.769902
      pz      :     0.972165  p :     2.932064
      px      :     0.993366
      py      :     0.966533
      dz2     :     0.057051  d :     0.369733
      dxz     :     0.105824
      dyz     :     0.058276
      dx2y2   :     0.076653
      dxy     :     0.071929
      f0      :     0.006607  f :     0.041871
      f+1     :     0.004248
      f-1     :     0.005722
      f+2     :     0.004831
      f-2     :     0.008122
      f+3     :     0.007378
      f-3     :     0.004963
  1 C s       :     2.763067  s :     2.763067
      pz      :     0.950727  p :     2.880862
      px      :     1.012934
      py      :     0.917201
      dz2     :     0.056420  d :     0.375110
      dxz     :     0.086060
      dyz     :     0.069047
      dx2y2   :     0.088847
      dxy     :     0.074736
      f0      :     0.005236  f :     0.041695
      f+1     :     0.007182
      f-1     :     0.003332
      f+2     :     0.004871
      f-2     :     0.007939
      f+3     :     0.007269
      f-3     :     0.005864
  2 C s       :     2.716321  s :     2.716321
      pz      :     0.971510  p :     2.856032
      px      :     0.954088
      py      :     0.930434
      dz2     :     0.111979  d :     0.498602
      dxz     :     0.111439
      dyz     :     0.076893
      dx2y2   :     0.091550
      dxy     :     0.106742
      f0      :     0.006240  f :     0.054066
      f+1     :     0.008814
      f-1     :     0.006325
      f+2     :     0.006769
      f-2     :     0.011199
      f+3     :     0.007984
      f-3     :     0.006734
  3 C s       :     2.766437  s :     2.766437
      pz      :     0.958087  p :     2.895122
      px      :     1.004068
      py      :     0.932967
      dz2     :     0.058084  d :     0.368466
      dxz     :     0.103522
      dyz     :     0.056651
      dx2y2   :     0.081607
      dxy     :     0.068602
      f0      :     0.006712  f :     0.041185
      f+1     :     0.004214
      f-1     :     0.005630
      f+2     :     0.004655
      f-2     :     0.007673
      f+3     :     0.007387
      f-3     :     0.004913
  4 C s       :     2.770719  s :     2.770719
      pz      :     0.963585  p :     2.927952
      px      :     1.031318
      py      :     0.933049
      dz2     :     0.057805  d :     0.371147
      dxz     :     0.085802
      dyz     :     0.068010
      dx2y2   :     0.087427
      dxy     :     0.072103
      f0      :     0.005409  f :     0.041917
      f+1     :     0.007002
      f-1     :     0.003312
      f+2     :     0.005003
      f-2     :     0.008082
      f+3     :     0.007368
      f-3     :     0.005741
  5 C s       :     2.773842  s :     2.773842
      pz      :     0.982175  p :     2.886965
      px      :     0.980856
      py      :     0.923934
      dz2     :     0.103224  d :     0.381147
      dxz     :     0.078326
      dyz     :     0.066434
      dx2y2   :     0.049852
      dxy     :     0.083312
      f0      :     0.005210  f :     0.042546
      f+1     :     0.007650
      f-1     :     0.005915
      f+2     :     0.006632
      f-2     :     0.008480
      f+3     :     0.003877
      f-3     :     0.004782
  6 H s       :     0.783940  s :     0.783940
      pz      :     0.022564  p :     0.059782
      px      :     0.025235
      py      :     0.011982
  7 H s       :     0.782290  s :     0.782290
      pz      :     0.011175  p :     0.059519
      px      :     0.029209
      py      :     0.019135
  8 H s       :     0.775286  s :     0.775286
      pz      :     0.026390  p :     0.060488
      px      :     0.010805
      py      :     0.023292
  9 H s       :     0.781044  s :     0.781044
      pz      :     0.023509  p :     0.061551
      px      :     0.025907
      py      :     0.012134
 10 H s       :     0.783356  s :     0.783356
      pz      :     0.025714  p :     0.059786
      px      :     0.011111
      py      :     0.022962
 11 C s       :     2.828267  s :     2.828267
      pz      :     0.893366  p :     2.841453
      px      :     0.931269
      py      :     1.016819
      dz2     :     0.093118  d :     0.469539
      dxz     :     0.101458
      dyz     :     0.056311
      dx2y2   :     0.106529
      dxy     :     0.112123
      f0      :     0.006352  f :     0.052702
      f+1     :     0.009826
      f-1     :     0.005759
      f+2     :     0.007059
      f-2     :     0.011030
      f+3     :     0.006603
      f-3     :     0.006073
 12 N s       :     3.096032  s :     3.096032
      pz      :     1.145965  p :     3.869134
      px      :     1.184481
      py      :     1.538688
      dz2     :     0.031896  d :     0.127129
      dxz     :     0.032880
      dyz     :     0.019102
      dx2y2   :     0.013470
      dxy     :     0.029781
      f0      :     0.000992  f :     0.009511
      f+1     :     0.001839
      f-1     :     0.001184
      f+2     :     0.001465
      f-2     :     0.002197
      f+3     :     0.000673
      f-3     :     0.001161
 13 H s       :     0.685958  s :     0.685958
      pz      :     0.047488  p :     0.102337
      px      :     0.021134
      py      :     0.033716
 14 H s       :     0.706852  s :     0.706852
      pz      :     0.018053  p :     0.100211
      px      :     0.041957
      py      :     0.040200
 15 H s       :     0.756703  s :     0.756703
      pz      :     0.010801  p :     0.060719
      px      :     0.013106
      py      :     0.036812
 16 H s       :     1.015949  s :     1.015949
      pz      :     0.006142  p :     0.014619
      px      :     0.004336
      py      :     0.004141
 17 Cus       :     6.520248  s :     6.520248
      pz      :     4.120898  p :    12.195765
      px      :     4.036523
      py      :     4.038343
      dz2     :     1.956194  d :     9.772950
      dxz     :     1.868864
      dyz     :     1.930882
      dx2y2   :     2.012338
      dxy     :     2.004671
      f0      :     0.000021  f :     0.000111
      f+1     :     0.000030
      f-1     :     0.000018
      f+2     :     0.000007
      f-2     :     0.000021
      f+3     :     0.000007
      f-3     :     0.000007


                      *****************************
                      * MAYER POPULATION ANALYSIS *
                      *****************************

  NA   - Mulliken gross atomic population
  ZA   - Total nuclear charge
  QA   - Mulliken gross atomic charge
  VA   - Mayer's total valence
  BVA  - Mayer's bonded valence
  FA   - Mayer's free valence

  ATOM       NA         ZA         QA         VA         BVA        FA
  0 C      6.1055     6.0000    -0.1055     3.8742     3.8742     0.0000
  1 C      6.1994     6.0000    -0.1994     3.9572     3.9572    -0.0000
  2 C      5.8846     6.0000     0.1154     3.7088     3.7088     0.0000
  3 C      6.1983     6.0000    -0.1983     3.9378     3.9378    -0.0000
  4 C      6.1090     6.0000    -0.1090     3.8717     3.8717     0.0000
  5 C      6.0965     6.0000    -0.0965     3.8915     3.8915     0.0000
  6 H      0.8425     1.0000     0.1575     0.9630     0.9630     0.0000
  7 H      0.8371     1.0000     0.1629     0.9599     0.9599     0.0000
  8 H      0.8758     1.0000     0.1242     1.0392     1.0392    -0.0000
  9 H      0.8466     1.0000     0.1534     0.9910     0.9910    -0.0000
 10 H      0.8411     1.0000     0.1589     0.9633     0.9633    -0.0000
 11 C      5.7163     6.0000     0.2837     3.7900     3.7900    -0.0000
 12 N      7.5382     7.0000    -0.5382     3.0180     3.0180     0.0000
 13 H      0.6970     1.0000     0.3030     0.9081     0.9081    -0.0000
 14 H      0.7299     1.0000     0.2701     0.9246     0.9246     0.0000
 15 H      0.8255     1.0000     0.1745     0.9680     0.9680    -0.0000
 16 H      1.0488     1.0000    -0.0488     1.0063     1.0063     0.0000
 17 Cu    28.6079    29.0000     0.3921     1.7636     1.7636     0.0000

  Mayer bond orders larger than 0.100000
B(  0-C ,  1-C ) :   1.4558 B(  0-C ,  5-C ) :   1.3624 B(  0-C ,  6-H ) :   0.9668 
B(  1-C ,  2-C ) :   1.2762 B(  1-C ,  8-H ) :   0.9594 B(  2-C ,  3-C ) :   1.2851 
B(  2-C , 11-C ) :   1.1212 B(  3-C ,  4-C ) :   1.4457 B(  3-C ,  9-H ) :   0.9568 
B(  4-C ,  5-C ) :   1.3542 B(  4-C , 10-H ) :   0.9654 B(  5-C ,  7-H ) :   0.9603 
B( 11-C , 12-N ) :   1.0998 B( 11-C , 15-H ) :   0.9522 B( 11-C , 17-Cu) :   0.5362 
B( 12-N , 13-H ) :   0.8563 B( 12-N , 14-H ) :   0.9027 B( 16-H , 17-Cu) :   0.8451 


-------
TIMINGS
-------

Total SCF time: 0 days 0 hours 7 min 45 sec 

Total time                  ....     465.361 sec
Sum of individual times     ....     424.007 sec  ( 91.1%)

Fock matrix formation       ....     192.530 sec  ( 41.4%)
  Split-RI-J                ....      57.902 sec  ( 30.1% of F)
  Chain of spheres X        ....      27.585 sec  ( 14.3% of F)
  XC integration            ....      17.472 sec  (  9.1% of F)
    Basis function eval.    ....       0.759 sec  (  4.3% of XC)
    Density eval.           ....       0.865 sec  (  5.0% of XC)
    XC-Functional eval.     ....       0.137 sec  (  0.8% of XC)
    XC-Potential eval.      ....       0.775 sec  (  4.4% of XC)
Diagonalization             ....      77.364 sec  ( 16.6%)
Density matrix formation    ....       3.292 sec  (  0.7%)
Population analysis         ....       3.763 sec  (  0.8%)
Initial guess               ....       6.304 sec  (  1.4%)
Orbital Transformation      ....       0.000 sec  (  0.0%)
Orbital Orthonormalization  ....       0.000 sec  (  0.0%)
DIIS solution               ....     126.298 sec  ( 27.1%)
Grid generation             ....      14.457 sec  (  3.1%)

Maximum memory used throughout the entire SCF-calculation: 84.0 MB


-------------------------------------------------------------------------------
                          DFT DISPERSION CORRECTION                            
                                                                               
                              DFTD3 V3.1  Rev 1                                
                          USING Becke-Johnson damping                          
-------------------------------------------------------------------------------
The B3LYP functional is recognized
Active option DFTDOPT                   ...         4   

molecular C6(AA) [au] = 4494.016956 


            DFT-D V3
 parameters
 s6 scaling factor         :     1.0000 
 a1 scaling factor         :     0.3981 
 s8 scaling factor         :     1.9889 
 a2 scaling factor         :     4.4211 
 ad hoc parameters k1-k3   :    16.0000     1.3333    -4.0000 

 Edisp/kcal,au: -21.879258239933  -0.034866813666 
 E6   /kcal   :  -9.794037734 
[...]
      9      -0.017668  -0.188615   0.007794  -0.000645  -0.022282  -0.039556
     10       0.145916  -0.228865   0.012287  -0.001547   0.006179   0.010693
     11      -0.110091   0.075242  -0.004942   0.000449  -0.014286  -0.025165
     12       0.144346   0.237140   0.004679   0.001158   0.000971   0.002063
     13      -0.073036   0.143663  -0.005645   0.000452  -0.020362  -0.027656
     14       0.117508   0.007378   0.005797   0.000254   0.014728   0.020343
     15      -0.178085  -0.088890  -0.005553  -0.000261   0.025813   0.020730
     16       0.185003  -0.102157   0.004512   0.000099   0.020389   0.017012
     17      -0.211134   0.031129  -0.005783  -0.000163  -0.002389  -0.002364
     18       0.194784  -0.070034  -0.001916   0.000217   0.306610   0.008371
     19       0.060572  -0.283228  -0.010143   0.000010  -0.069492  -0.000637
     20       0.048607   0.165074   0.005782  -0.000084   0.188830   0.004242
     21       0.263786  -0.147315   0.008997  -0.000002  -0.300594  -0.244728
     22      -0.309159  -0.063784  -0.012641  -0.000199  -0.237957  -0.194182
     23       0.336247  -0.025638   0.014455   0.000091   0.028159   0.023186
     24       0.314305   0.346006  -0.001609   0.001365  -0.026037   0.012612
     25       0.150014   0.009588  -0.003358   0.000541   0.476216  -0.252395
     26       0.036046   0.150041   0.003000  -0.000156  -0.348144   0.183934
     27      -0.225747   0.136553  -0.046556  -0.000143   0.259934   0.463910
     28      -0.234630   0.400210  -0.087119   0.000539  -0.065810  -0.116161
     29       0.058438  -0.214569   0.037841   0.000598   0.162403   0.289213
     30      -0.160963  -0.300582  -0.007256  -0.000177  -0.013737  -0.019430
     31      -0.168122   0.018507  -0.010079  -0.000067   0.241482   0.329702
     32       0.043914  -0.150443   0.004431  -0.000097  -0.175776  -0.240354
     33      -0.040837   0.022026   0.057528   0.001189  -0.006234   0.007649
     34       0.010206  -0.014868   0.007790   0.000314   0.030911  -0.041474
     35      -0.028261   0.008590   0.014120   0.003591  -0.018961   0.025198
     36       0.007593  -0.026123  -0.086757  -0.002804   0.000591  -0.000688
     37      -0.001101   0.002517  -0.009368  -0.000076  -0.000900   0.001177
     38       0.009070  -0.012476  -0.066697  -0.003247   0.001030  -0.001466
     39       0.015842   0.015024   0.504001   0.006410   0.002494   0.000501
     40      -0.007600   0.027091   0.431565   0.005559   0.005154  -0.007479
     41       0.005205  -0.012064   0.228982  -0.002672  -0.003551   0.008463
     42      -0.014049   0.031319   0.293786   0.004522   0.000584   0.000265
     43       0.013303  -0.045366  -0.296400  -0.007017   0.003164  -0.004355
     44      -0.022457   0.038711   0.540949   0.003511  -0.000223   0.001631
     45       0.204323  -0.021485  -0.098728   0.008093   0.073517  -0.097015
     46       0.097211  -0.014366  -0.042001  -0.006169  -0.350454   0.474077
     47       0.030588   0.028971  -0.012489  -0.003311   0.213777  -0.288388
     48      -0.002272  -0.019627  -0.005683   0.106104   0.000638  -0.000731
     49      -0.000730  -0.003300  -0.003932   0.304520  -0.001306   0.001719
     50      -0.003350  -0.022361  -0.015449   0.946277  -0.000966   0.001418
     51       0.000054  -0.000274  -0.000002  -0.001842  -0.000014   0.000024
     52      -0.000037   0.000462   0.000134  -0.004780   0.000020  -0.000028
     53      -0.000136   0.001077   0.000496  -0.014767  -0.000021   0.000018
                 48         49         50         51         52         53    
      0      -0.022821  -0.009161  -0.046664   0.044547  -0.000061   0.000008
      1       0.005494  -0.000818   0.009365  -0.010843  -0.000225   0.000001
      2      -0.014266  -0.003630  -0.027885   0.027956   0.000160  -0.000018
      3       0.002056  -0.002105   0.000780  -0.000969   0.000530  -0.000048
      4      -0.029824   0.034485   0.020694  -0.016645  -0.000089  -0.000044
      5       0.022043  -0.025318  -0.014253   0.011294   0.000305  -0.000005
      6       0.000208   0.000731   0.001062  -0.000767  -0.001426  -0.000326
      7       0.001999   0.000503  -0.001337  -0.000615  -0.000965   0.000169
      8      -0.001309   0.000022   0.001408   0.000058  -0.000069  -0.000086
      9       0.032360   0.033832  -0.026141  -0.018133  -0.000071   0.000089
     10      -0.007701  -0.008663   0.004468   0.002721   0.000655  -0.000303
     11       0.019859   0.021205  -0.014823  -0.010036  -0.000447   0.000238
     12      -0.001907  -0.002355  -0.001398  -0.003049  -0.000164  -0.000065
     13       0.009218  -0.007745   0.046383   0.039427  -0.000061   0.000095
     14      -0.007337   0.004372  -0.033199  -0.029080  -0.000081  -0.000043
     15       0.015200   0.045666   0.002860   0.035406  -0.000000   0.000022
     16       0.011499   0.036140  -0.001561   0.028297   0.000077  -0.000038
     17      -0.001042  -0.004267   0.002404  -0.003508  -0.000063   0.000058
     18       0.270646   0.092859   0.522254  -0.497307  -0.000838  -0.000106
     19      -0.061534  -0.017691  -0.116313   0.113080   0.000167  -0.000041
     20       0.166714   0.054834   0.320150  -0.306471  -0.000446  -0.000064
     21      -0.172588  -0.525074  -0.012346  -0.388473  -0.000086  -0.000109
     22      -0.136059  -0.415882  -0.005290  -0.307632  -0.000025  -0.000092
     23       0.015689   0.049313  -0.001959   0.036485   0.000110  -0.000122
     24      -0.019716   0.021624   0.009761  -0.007221   0.000028  -0.000093
     25       0.347911  -0.392540  -0.222411   0.172867   0.001332  -0.000011
     26      -0.254729   0.287138   0.161560  -0.125410  -0.000996  -0.000010
     27      -0.372095  -0.387083   0.279978   0.187759  -0.000359   0.000800
     28       0.093032   0.096735  -0.067559  -0.044818  -0.005331   0.005245
     29      -0.231693  -0.241087   0.172662   0.115471   0.002847  -0.002704
     30       0.007995  -0.001657   0.028914   0.026717  -0.000103   0.000109
     31      -0.114582   0.081222  -0.519339  -0.437580  -0.000538  -0.000213
     32       0.084038  -0.057738   0.377690   0.319305   0.000304   0.000188
     33       0.009537  -0.003111  -0.000758  -0.000052  -0.000435  -0.000624
     34      -0.048664   0.018784   0.003010  -0.001592   0.000390   0.000612
     35       0.029841  -0.011385  -0.001936   0.000957   0.000694  -0.000596
     36      -0.000740   0.000233   0.000036   0.000032   0.036504   0.017443
     37       0.001604  -0.000591  -0.000171   0.000018   0.013454   0.076026
     38      -0.001731   0.000753   0.000133  -0.000111   0.038218  -0.035517
     39      -0.004182  -0.000857   0.001268   0.000525  -0.093440   0.106383
     40      -0.008949   0.004080   0.000692  -0.000978   0.446837  -0.495804
     41       0.006485  -0.005158   0.000182   0.001466  -0.481754   0.548274
     42       0.000309  -0.001145  -0.000122   0.000983  -0.390927  -0.345687
     43      -0.004002   0.001085  -0.000082   0.000962  -0.633100  -0.558513
     44       0.000862  -0.001198   0.000160   0.000426  -0.052411  -0.055371
     45      -0.113221   0.042357   0.006939  -0.002877  -0.004452   0.007111
     46       0.552920  -0.215116  -0.032834   0.018562   0.005907  -0.015690
     47      -0.336236   0.130410   0.019992  -0.011170  -0.006663   0.008574
     48      -0.000941   0.000071   0.000075   0.000268   0.002356   0.000087
     49       0.002062  -0.000668  -0.000128  -0.000087  -0.001438   0.000860
     50       0.001447  -0.000331  -0.000029  -0.000245  -0.002266   0.000187
     51       0.000022  -0.000015  -0.000001   0.000003  -0.000001   0.000006
     52      -0.000035   0.000014   0.000003  -0.000003   0.000029   0.000031
     53       0.000032  -0.000004  -0.000005  -0.000003   0.000067  -0.000001


-----------
IR SPECTRUM
-----------

 Mode   freq       eps      Int      T**2         TX        TY        TZ
       cm**-1   L/(mol*cm) km/mol    a.u.
----------------------------------------------------------------------------
  6:     52.20   0.002182   11.03  0.013042  ( 0.086884 -0.071137  0.020809)
  7:     71.30   0.001227    6.20  0.005369  ( 0.051286  0.046715 -0.023584)
  8:    146.78   0.019603   99.06  0.041675  ( 0.184645 -0.019084 -0.084953)
  9:    226.53   0.005677   28.69  0.007821  ( 0.023343  0.081753 -0.024344)
 10:    282.60   0.051389  259.70  0.056747  (-0.197516  0.028811  0.130016)
 11:    302.99   0.041780  211.14  0.043031  ( 0.189468 -0.038080 -0.075381)
 12:    392.29   0.025755  130.16  0.020488  ( 0.133048  0.029716 -0.043623)
 13:    402.58   0.012304   62.18  0.009538  (-0.053012 -0.077818  0.025914)
 14:    414.78   0.015988   80.80  0.012029  (-0.039482  0.100607 -0.018656)
 15:    473.15   0.002909   14.70  0.001918  (-0.025351  0.017008  0.031409)
 16:    495.75   0.003925   19.84  0.002471  ( 0.003429 -0.008407  0.048872)
 17:    585.93   0.005621   28.40  0.002993  (-0.044982 -0.021124  0.022888)
 18:    628.71   0.000342    1.73  0.000170  ( 0.012097  0.001217  0.004705)
 19:    678.81   0.006036   30.50  0.002775  (-0.018782  0.023022  0.043499)
 20:    709.76   0.009422   47.62  0.004143  ( 0.017339  0.051436  0.034589)
 21:    778.78   0.058326  294.75  0.023372  (-0.130901  0.037236  0.069644)
 22:    797.94   0.018479   93.38  0.007227  ( 0.083469 -0.008792 -0.013509)
 23:    810.91   0.001036    5.24  0.000399  (-0.010694  0.005530  0.015930)
 24:    844.28   0.000259    1.31  0.000096  ( 0.009736 -0.000575  0.000819)
 25:    953.22   0.004662   23.56  0.001526  ( 0.033091  0.003017 -0.020546)
 26:    978.70   0.013553   68.49  0.004322  (-0.058401 -0.012414  0.027508)
 27:    996.50   0.001098    5.55  0.000344  (-0.016166 -0.005823  0.006968)
 28:   1019.06   0.001404    7.09  0.000430  (-0.019444 -0.007104  0.001162)
 29:   1030.63   0.000122    0.62  0.000037  ( 0.004558 -0.000899 -0.003915)
 30:   1046.65   0.000323    1.63  0.000096  (-0.004360 -0.008357 -0.002740)
 31:   1102.99   0.002117   10.70  0.000599  ( 0.015213 -0.018510  0.004985)
 32:   1137.60   0.002896   14.64  0.000794  ( 0.001218  0.006712  0.027348)
 33:   1187.17   0.000376    1.90  0.000099  ( 0.005286 -0.007395  0.004037)
 34:   1210.13   0.018369   92.83  0.004737  ( 0.061315  0.025983 -0.017391)
 35:   1237.46   0.010220   51.65  0.002577  ( 0.042734  0.012977 -0.024140)
 36:   1309.92   0.035977  181.81  0.008571  ( 0.068384  0.053302  0.032456)
 37:   1358.89   0.013777   69.62  0.003164  ( 0.055279  0.008232  0.006350)
 38:   1377.61   0.004288   21.67  0.000971  ( 0.013677  0.025413 -0.011765)
 39:   1480.76   0.018795   94.98  0.003961  (-0.032937 -0.050153  0.018993)
 40:   1514.47   0.014532   73.44  0.002994  ( 0.048184  0.023143  0.011704)
 41:   1543.18   0.028894  146.02  0.005843  ( 0.069374  0.031496 -0.006182)
 42:   1608.95   0.002138   10.80  0.000415  (-0.018323 -0.008859  0.000655)
 43:   1633.11   0.037645  190.24  0.007193  (-0.073013 -0.038264  0.019956)
 44:   1647.22   0.053640  271.08  0.010162  ( 0.081461  0.024527  0.054080)
 45:   1845.64   0.056812  287.11  0.009606  ( 0.024847 -0.023342 -0.091889)
 46:   3184.30   0.000861    4.35  0.000084  ( 0.004282 -0.007767 -0.002389)
 47:   3186.78   0.001877    9.48  0.000184  (-0.010433  0.008390  0.002128)
 48:   3189.57   0.002027   10.24  0.000198  (-0.007523  0.011218  0.003989)
 49:   3192.88   0.000361    1.82  0.000035  ( 0.005838 -0.000404  0.001007)
 50:   3203.72   0.000685    3.46  0.000067  (-0.004547  0.003690 -0.005693)
 51:   3209.16   0.001032    5.22  0.000100  ( 0.008511  0.004456 -0.002839)
 52:   3487.08   0.055649  281.22  0.004980  (-0.044199 -0.032474 -0.044407)
 53:   3585.59   0.032248  162.97  0.002807  (-0.013893 -0.046986  0.020147)

* The epsilon (eps) is given for a Dirac delta lineshape.
** The dipole moment derivative (T) already includes vibrational overlap.

The first frequency considered to be a vibration is 6
The total number of vibrations considered is 48


--------------------------
THERMOCHEMISTRY AT 298.15K
--------------------------

Temperature         ... 298.15 K
Pressure            ... 1.00 atm
Total Mass          ... 170.71 AMU

Throughout the following assumptions are being made:
  (1) The electronic state is orbitally nondegenerate
  (2) There are no thermally accessible electronically excited states
  (3) Hindered rotations indicated by low frequency modes are not
      treated as such but are treated as vibrations and this may
      cause some error
  (4) All equations used are the standard statistical mechanics
      equations for an ideal gas
  (5) All vibrations are strictly harmonic

freq.      52.20  E(vib)   ...       0.52 
freq.      71.30  E(vib)   ...       0.50 
freq.     146.78  E(vib)   ...       0.41 
freq.     226.53  E(vib)   ...       0.33 
freq.     282.60  E(vib)   ...       0.28 
freq.     302.99  E(vib)   ...       0.26 
freq.     392.29  E(vib)   ...       0.20 
freq.     402.58  E(vib)   ...       0.19 
freq.     414.78  E(vib)   ...       0.19 
freq.     473.15  E(vib)   ...       0.15 
freq.     495.75  E(vib)   ...       0.14 
freq.     585.93  E(vib)   ...       0.11 
freq.     628.71  E(vib)   ...       0.09 
freq.     678.81  E(vib)   ...       0.08 
freq.     709.76  E(vib)   ...       0.07 
freq.     778.78  E(vib)   ...       0.05 
freq.     797.94  E(vib)   ...       0.05 
freq.     810.91  E(vib)   ...       0.05 
freq.     844.28  E(vib)   ...       0.04 
freq.     953.22  E(vib)   ...       0.03 
freq.     978.70  E(vib)   ...       0.03 
freq.     996.50  E(vib)   ...       0.02 
freq.    1019.06  E(vib)   ...       0.02 
freq.    1030.63  E(vib)   ...       0.02 
freq.    1046.65  E(vib)   ...       0.02 
freq.    1102.99  E(vib)   ...       0.02 
freq.    1137.60  E(vib)   ...       0.01 
freq.    1187.17  E(vib)   ...       0.01 
freq.    1210.13  E(vib)   ...       0.01 
freq.    1237.46  E(vib)   ...       0.01 
freq.    1309.92  E(vib)   ...       0.01 
freq.    1358.89  E(vib)   ...       0.01 
freq.    1377.61  E(vib)   ...       0.01 
freq.    1480.76  E(vib)   ...       0.00 
freq.    1514.47  E(vib)   ...       0.00 
freq.    1543.18  E(vib)   ...       0.00 
freq.    1608.95  E(vib)   ...       0.00 
freq.    1633.11  E(vib)   ...       0.00 
freq.    1647.22  E(vib)   ...       0.00 
freq.    1845.64  E(vib)   ...       0.00 
freq.    3184.30  E(vib)   ...       0.00 
freq.    3186.78  E(vib)   ...       0.00 
freq.    3189.57  E(vib)   ...       0.00 
freq.    3192.88  E(vib)   ...       0.00 
freq.    3203.72  E(vib)   ...       0.00 
freq.    3209.16  E(vib)   ...       0.00 
freq.    3487.08  E(vib)   ...       0.00 
freq.    3585.59  E(vib)   ...       0.00 

------------
INNER ENERGY
------------

The inner energy is: U= E(el) + E(ZPE) + E(vib) + E(rot) + E(trans)
    E(el)   - is the total energy from the electronic structure calculation
              = E(kin-el) + E(nuc-el) + E(el-el) + E(nuc-nuc)
    E(ZPE)  - the the zero temperature vibrational energy from the frequency calculation
    E(vib)  - the the finite temperature correction to E(ZPE) due to population
              of excited vibrational states
    E(rot)  - is the rotational thermal energy
    E(trans)- is the translational thermal energy

Summary of contributions to the inner energy U:
Electronic energy                ...  -1967.14336495 Eh
Zero point energy                ...      0.14251086 Eh      89.43 kcal/mol
Thermal vibrational correction   ...      0.00625418 Eh       3.92 kcal/mol
Thermal rotational correction    ...      0.00141627 Eh       0.89 kcal/mol
Thermal translational correction ...      0.00141627 Eh       0.89 kcal/mol
-----------------------------------------------------------------------
Total thermal energy                  -1966.99176736 Eh


Summary of corrections to the electronic energy:
(perhaps to be used in another calculation)
Total thermal correction                  0.00908672 Eh       5.70 kcal/mol
Non-thermal (ZPE) correction              0.14251086 Eh      89.43 kcal/mol
-----------------------------------------------------------------------
Total correction                          0.15159758 Eh      95.13 kcal/mol


--------
ENTHALPY
--------

The enthalpy is H = U + kB*T
                kB is Boltzmann's constant
Total free energy                 ...  -1966.99176736 Eh 
Thermal Enthalpy correction       ...      0.00094421 Eh       0.59 kcal/mol
-----------------------------------------------------------------------
Total Enthalpy                    ...  -1966.99082315 Eh


Note: Only C1 symmetry has been detected, increase convergence thresholds 
      if your molecule has a higher symmetry. Symmetry factor of 1.0 is   
      used for the rotational entropy correction. 
 

Note: Rotational entropy computed according to Herzberg 
Infrared and Raman Spectra, Chapter V,1, Van Nostrand Reinhold, 1945 
Point Group:  C1, Symmetry Number:   1  
Rotational constants in cm-1:     0.095708     0.021412     0.020669 

Vibrational entropy computed according to the QRRHO of S. Grimme
Chem.Eur.J. 2012 18 9955


-------
ENTROPY
-------

The entropy contributions are T*S = T*(S(el)+S(vib)+S(rot)+S(trans))
     S(el)   - electronic entropy
     S(vib)  - vibrational entropy
     S(rot)  - rotational entropy
     S(trans)- translational entropy
The entropies will be listed as multiplied by the temperature to get
units of energy

Electronic entropy                ...      0.00000000 Eh      0.00 kcal/mol
Vibrational entropy               ...      0.01043649 Eh      6.55 kcal/mol
Rotational entropy                ...      0.01426447 Eh      8.95 kcal/mol
Translational entropy             ...      0.01962863 Eh     12.32 kcal/mol
-----------------------------------------------------------------------
Final entropy term                ...      0.04432958 Eh     27.82 kcal/mol

In case the symmetry of your molecule has not been determined correctly
or in case you have a reason to use a different symmetry number we print 
out the resulting rotational entropy values for sn=1,12 :
 --------------------------------------------------------
|  sn= 1 | S(rot)=       0.01426447 Eh      8.95 kcal/mol|
|  sn= 2 | S(rot)=       0.01361001 Eh      8.54 kcal/mol|
|  sn= 3 | S(rot)=       0.01322718 Eh      8.30 kcal/mol|
|  sn= 4 | S(rot)=       0.01295555 Eh      8.13 kcal/mol|
|  sn= 5 | S(rot)=       0.01274487 Eh      8.00 kcal/mol|
|  sn= 6 | S(rot)=       0.01257272 Eh      7.89 kcal/mol|
|  sn= 7 | S(rot)=       0.01242718 Eh      7.80 kcal/mol|
|  sn= 8 | S(rot)=       0.01230110 Eh      7.72 kcal/mol|
|  sn= 9 | S(rot)=       0.01218989 Eh      7.65 kcal/mol|
|  sn=10 | S(rot)=       0.01209041 Eh      7.59 kcal/mol|
|  sn=11 | S(rot)=       0.01200042 Eh      7.53 kcal/mol|
|  sn=12 | S(rot)=       0.01191827 Eh      7.48 kcal/mol|
 --------------------------------------------------------


-------------------
GIBBS FREE ENERGY
-------------------

The Gibbs free energy is G = H - T*S

Total enthalpy                    ...  -1966.99082315 Eh 
Total entropy correction          ...     -0.04432958 Eh    -27.82 kcal/mol
-----------------------------------------------------------------------
Final Gibbs free energy         ...  -1967.03515273 Eh

For completeness - the Gibbs free energy minus the electronic energy
G-E(el)                           ...      0.10821221 Eh     67.90 kcal/mol


Timings for individual modules:

Sum of individual times         ...    11449.751 sec (= 190.829 min)
GTO integral calculation        ...      258.410 sec (=   4.307 min)   2.3 %
SCF iterations                  ...     9629.077 sec (= 160.485 min)  84.1 %
SCF Gradient evaluation         ...      451.975 sec (=   7.533 min)   3.9 %
Geometry relaxation             ...        1.347 sec (=   0.022 min)   0.0 %
Analytical frequency calculation...     1108.942 sec (=  18.482 min)   9.7 %
                             ****ORCA TERMINATED NORMALLY****
TOTAL RUN TIME: 0 days 3 hours 13 minutes 36 seconds 700 msec
