18
Properties=species:S:1:pos:R:3 energy=-1967.185818716235 pbc="F F F"
C       -3.07069000       1.83825800       1.69009900
C       -1.96125500       2.62668200       1.42031200
C       -0.71250500       2.31601000       1.96186700
C       -0.60021300       1.20740200       2.79945300
C       -1.71675100       0.42299000       3.08298400
C       -2.95118100       0.73005000       2.52391700
H       -4.02736200       2.09039900       1.25052400
H       -3.81446200       0.11222000       2.73418900
H       -2.05751200       3.49237300       0.77534100
H        0.35270900       0.92875900       3.23377000
H       -1.61675300      -0.43523200       3.73551200
C        0.45750800       3.16489600       1.53708200
N        1.61788000       3.15832400       2.48479500
H        0.12811100       4.19361000       1.39707600
H        0.81120900       2.81030300       0.56834700
H        1.89063700       4.11690200       2.68519900
H        1.34165900       2.76682900       3.38193500
Cu       3.17816200       2.21502400       1.79479500
18
Properties=species:S:1:pos:R:3 energy=-1967.186595259049 pbc="F F F"
C       -3.07506400       1.84918700       1.71368400
C       -1.96628600       2.62920300       1.41464600
C       -0.70745000       2.30973500       1.92879100
C       -0.58204500       1.19296400       2.75261100
C       -1.69491400       0.41321100       3.05880900
C       -2.94221800       0.73602800       2.53941600
H       -4.04306900       2.11452200       1.30797200
H       -3.80539900       0.12711200       2.77541200
H       -2.07497800       3.50208700       0.78142000
H        0.37997600       0.90556400       3.15982800
H       -1.58296300      -0.44960200       3.70313400
C        0.46349500       3.16224100       1.51324200
N        1.59370000       3.16867500       2.49890500
H        0.13332600       4.18880000       1.35710300
H        0.84086700       2.79936300       0.55628900
H        1.88352000       4.12777500       2.66818900
H        1.27193600       2.82567400       3.40044000
Cu       3.15675800       2.15326200       1.92730600
18
Properties=species:S:1:pos:R:3 energy=-1967.187503837375 pbc="F F F"
C       -3.07975200       1.86416000       1.75150600
C       -1.97881900       2.64373100       1.41903300
C       -0.70487000       2.31329900       1.88720700
C       -0.55575200       1.18255300       2.68773300
C       -1.65814700       0.40210200       3.02356200
C       -2.92257700       0.74027100       2.55859900
H       -4.06218300       2.13974600       1.38977700
H       -3.78000800       0.13500900       2.82359100
H       -2.10856200       3.52509800       0.80198100
H        0.42099800       0.88538500       3.04992600
H       -1.52428800      -0.47139400       3.64899700
C        0.47181100       3.16049700       1.47621200
N        1.55603500       3.17909900       2.51368700
H        0.14997600       4.18528300       1.29195200
H        0.88189400       2.77848100       0.54043000
H        1.88948000       4.13179700       2.63042300
H        1.16064700       2.92312400       3.41539600
Cu       3.09330900       2.03755800       2.14718700
18
Properties=species:S:1:pos:R:3 energy=-1967.18816411592 pbc="F F F"
C       -3.08162300       1.87801600       1.78480100
C       -1.98347600       2.65319200       1.43082300
C       -0.70065100       2.30628000       1.85975100
C       -0.53927300       1.15844700       2.63471200
C       -1.63751800       0.38195700       2.99008200
C       -2.91212400       0.74090200       2.57006600
H       -4.07231700       2.16871600       1.45915000
H       -3.76769400       0.14168400       2.85441800
H       -2.12454000       3.54590500       0.83283400
H        0.44534100       0.84917400       2.96316500
H       -1.49282400      -0.50234700       3.59759000
C        0.47897900       3.15320700       1.45292800
N        1.53360400       3.20286000       2.52140900
H        0.15554600       4.17183100       1.23804200
H        0.91744100       2.75368900       0.53753500
H        1.90930900       4.14547700       2.57360500
H        1.09243500       3.04105600       3.42387900
Cu       3.02857600       1.96575400       2.33240700
18
Properties=species:S:1:pos:R:3 energy=-1967.188847470212 pbc="F F F"
C       -3.08182100       1.89183700       1.81641800
C       -1.98342600       2.66415400       1.45518300
C       -0.69556200       2.29521800       1.84577000
C       -0.52985900       1.12944200       2.59487300
C       -1.62757300       0.35710700       2.95899500
C       -2.90760600       0.73757300       2.57373400
H       -4.07632300       2.19845200       1.51800400
H       -3.76333000       0.14178000       2.86485500
H       -2.12912800       3.56992100       0.87835100
H        0.45858300       0.80767400       2.89805600
H       -1.47890000      -0.54064000       3.54551600
C        0.48458000       3.14104700       1.43607000
N        1.52079100       3.23238500       2.52008600
H        0.15289600       4.14996200       1.18969000
H        0.94830200       2.72442500       0.54100400
H        1.93758700       4.15926300       2.49927800
H        1.05060300       3.16927900       3.42086700
Cu       2.96937800       1.92692200       2.50044600
18
Properties=species:S:1:pos:R:3 energy=-1967.189476359332 pbc="F F F"
C       -3.08072000       1.90396800       1.84481400
C       -1.98015200       2.67559800       1.48738300
C       -0.69033100       2.28540900       1.84598600
C       -0.52417300       1.10135200       2.56769600
C       -1.62333700       0.33135900       2.93105300
C       -2.90606100       0.73132700       2.57143700
H       -4.07616000       2.22488900       1.56499400
H       -3.76293600       0.13505500       2.85816100
H       -2.12592700       3.59447700       0.93176600
H        0.46687200       0.76636700       2.84935200
H       -1.47516000      -0.58169200       3.49368600
C        0.48685900       3.12906800       1.42649100
N        1.51372100       3.26507400       2.51324900
H        0.14396000       4.12548500       1.14700500
H        0.97161100       2.69281700       0.55221400
H        1.97556000       4.16579400       2.41461400
H        1.03003500       3.30426300       3.40866700
Cu       2.90552900       1.90519200       2.64863000
18
Properties=species:S:1:pos:R:3 energy=-1967.189976911015 pbc="F F F"
C       -3.07812300       1.91377100       1.86721800
C       -1.97273300       2.68502300       1.52401300
C       -0.68375000       2.27241500       1.85606200
C       -0.52229900       1.07138800       2.55089500
C       -1.62555300       0.30537800       2.90784200
C       -2.90798000       0.72328800       2.56360400
H       -4.07151400       2.24844500       1.59682400
H       -3.76762800       0.12541100       2.83770800
H       -2.11284300       3.61717100       0.98950900
H        0.46882900       0.72361600       2.81848800
H       -1.48322600      -0.62135400       3.44926700
C        0.48552800       3.11776000       1.42539400
N        1.51007800       3.29941500       2.50352300
H        0.12442600       4.09898900       1.11713800
H        0.98990900       2.66702900       0.56976800
H        2.01655300       4.16361600       2.32447400
H        1.03113600       3.44107600       3.39169500
Cu       2.84838000       1.90336200       2.76377700
18
Properties=species:S:1:pos:R:3 energy=-1967.190553311386 pbc="F F F"
C       -3.07495800       1.92427700       1.89572300
C       -1.96891200       2.69454500       1.55114600
C       -0.67792600       2.26399000       1.85040300
C       -0.51487100       1.04876700       2.51931000
C       -1.61725900       0.28498500       2.88055400
C       -2.90214000       0.71888700       2.56472400
H       -4.06954000       2.27133500       1.64659200
H       -3.76138300       0.12093100       2.83955200
H       -2.10961000       3.63846300       1.03804100
H        0.47858900       0.69067400       2.76410700
H       -1.47407000      -0.65295300       3.40206100
C        0.48871400       3.10825300       1.41402400
N        1.49535000       3.32367200       2.50028700
H        0.12014800       4.07745400       1.07766300
H        1.01494400       2.64302600       0.57945000
H        2.05436900       4.14019100       2.26180000
H        1.00790900       3.56539300       3.36220900
Cu       2.75983600       1.89391000       2.90955200
18
Properties=species:S:1:pos:R:3 energy=-1967.190310692398 pbc="F F F"
C       -3.06774500       1.93722600       1.94633400
C       -1.98737900       2.70729200       1.52501300
C       -0.67980500       2.28740500       1.77659100
C       -0.47851000       1.07111900       2.42747600
C       -1.55413800       0.29858200       2.84666800
C       -2.85366400       0.73407100       2.61289400
H       -4.07793000       2.28184700       1.76312100
H       -3.69317400       0.13760100       2.94768900
H       -2.16019100       3.65081400       1.02104800
H        0.53268300       0.70981100       2.60472400
H       -1.37575100      -0.64021600       3.35515400
C        0.51420000       3.11044400       1.36031600
N        1.42604900       3.30565400       2.53363200
H        0.20630800       4.08820400       0.98533500
H        1.06372200       2.60792800       0.56385400
H        2.07449600       4.06631300       2.33773100
H        0.86665900       3.62032900       3.32202200
Cu       2.49336100       1.78137600       3.12759600
18
Properties=species:S:1:pos:R:3 energy=-1967.190993376024 pbc="F F F"
C       -3.07278200       1.93328100       1.92701700
C       -1.97559600       2.70722300       1.56129000
C       -0.67823200       2.27462100       1.83224300
C       -0.50233100       1.05032600       2.47927400
C       -1.59453600       0.27978100       2.85612100
C       -2.88529800       0.71990300       2.57910900
H       -4.07368900       2.28261500       1.70753200
H       -3.73773000       0.11831400       2.86780100
H       -2.12812500       3.65697900       1.06264000
H        0.49813200       0.68263400       2.68531500
H       -1.43802400      -0.66645200       3.35828400
C        0.50300300       3.10017100       1.38911200
N        1.46983300       3.33313400       2.50962600
H        0.16146200       4.06690800       1.01721400
H        1.03777900       2.60192100       0.57957700
H        2.07459100       4.11502800       2.26662300
H        0.94923400       3.63366700       3.33151000
Cu       2.64150000       1.86574700       3.04690800
18
Properties=species:S:1:pos:R:3 energy=-1967.19105081909 pbc="F F F"
C       -3.07237300       1.93692700       1.93216400
C       -1.97323400       2.71121700       1.57294500
C       -0.67658100       2.27217200       1.83810300
C       -0.50403600       1.04434000       2.47931000
C       -1.59819500       0.27432000       2.85160400
C       -2.88782200       0.71817800       2.57504200
H       -4.07236000       2.28934700       1.71329400
H       -3.74161800       0.11512100       2.85667500
H       -2.12319600       3.66480500       1.08080600
H        0.49451300       0.67166100       2.68419600
H       -1.44420100      -0.67521800       3.34819900
C        0.50563200       3.09253500       1.38849300
N        1.47029200       3.34250200       2.50736100
H        0.16402800       4.05456800       1.00435300
H        1.04096800       2.58506000       0.58538400
H        2.07110800       4.12510700       2.25736300
H        0.94748100       3.64837300       3.32553100
Cu       2.64878400       1.88478700       3.05637500
18
Properties=species:S:1:pos:R:3 energy=-1967.191167387848 pbc="F F F"
C       -3.06860500       1.95339300       1.95829900
C       -1.96533000       2.72479700       1.60527700
C       -0.67005400       2.26431400       1.84354600
C       -0.50447300       1.02390600       2.46114900
C       -1.60274300       0.25788100       2.83061000
C       -2.89015900       0.71852300       2.57224200
H       -4.06722000       2.31834200       1.75382000
H       -3.74700400       0.11462700       2.84297500
H       -2.10962700       3.69024100       1.13505700
H        0.49008500       0.63199300       2.64904300
H       -1.45361000      -0.70270500       3.30685000
C        0.51997100       3.06421600       1.37871900
N        1.45816000       3.37255900       2.50685100
H        0.18842700       4.00819300       0.94343800
H        1.06504900       2.51901900       0.60840200
H        2.04819300       4.15990400       2.24693200
H        0.91117700       3.69183600       3.30299700
Cu       2.64695300       1.94476000       3.11099100
18
Properties=species:S:1:pos:R:3 energy=-1967.191207229205 pbc="F F F"
C       -3.06578500       1.96101400       1.97000600
C       -1.96169800       2.72941000       1.61320800
C       -0.66722400       2.26079700       1.83858100
C       -0.50230100       1.01667700       2.44868200
C       -1.60140700       0.25359400       2.82227600
C       -2.88852000       0.72164900       2.57534700
H       -4.06421300       2.33113900       1.77422300
H       -3.74621600       0.11968500       2.84761200
H       -2.10452200       3.69798000       1.14909300
H        0.49200600       0.61961400       2.62777600
H       -1.45330300      -0.71028500       3.29216700
C        0.52599400       3.05405600       1.37261700
N        1.44757200       3.38133500       2.50957500
H        0.20098800       3.98997000       0.91566700
H        1.08031000       2.49391300       0.62005100
H        2.03197700       4.17407800       2.25333200
H        0.88621100       3.69812600       3.29685600
Cu       2.63932300       1.96304800       3.13012900
18
Properties=species:S:1:pos:R:3 energy=-1967.191243577768 pbc="F F F"
C       -3.06138400       1.97016200       1.98304000
C       -1.95760900       2.73253500       1.61278900
C       -0.66434300       2.25635500       1.82304700
C       -0.49716000       1.01016300       2.42884700
C       -1.59590800       0.25254100       2.81453200
C       -2.88339800       0.72937800       2.58499400
H       -4.06007700       2.34595500       1.80017500
H       -3.74136900       0.13289900       2.86797300
H       -2.10008000       3.70174300       1.15001900
H        0.49917800       0.61233200       2.59593400
H       -1.44785000      -0.71310800       3.28091300
C        0.53242200       3.04563300       1.36324500
N        1.42900000       3.38572300       2.51746500
H        0.21715600       3.97260500       0.88278200
H        1.10480300       2.47095200       0.63553400
H        2.00401200       4.19011200       2.27646200
H        0.84738700       3.68685600       3.29673800
Cu       2.62441100       1.97296300       3.14271000
18
Properties=species:S:1:pos:R:3 energy=-1967.191248915523 pbc="F F F"
C       -3.06157200       1.96986300       1.98191500
C       -1.95736600       2.73123900       1.61039900
C       -0.66437600       2.25544800       1.82253800
C       -0.49770400       1.00914600       2.42898000
C       -1.59670400       0.25272500       2.81548600
C       -2.88398800       0.73024300       2.58607000
H       -4.06012900       2.34602300       1.79896000
H       -3.74224300       0.13498200       2.87080900
H       -2.09958200       3.69977000       1.14606600
H        0.49894400       0.61149400       2.59412200
H       -1.44931900      -0.71278800       3.28233700
C        0.53235700       3.04583300       1.36358000
N        1.42951900       3.38528100       2.51833400
H        0.21571300       3.97346900       0.88544800
H        1.10601900       2.47360600       0.63485900
H        2.00158600       4.19204200       2.27839400
H        0.84862200       3.68263600       3.29938300
Cu       2.62941600       1.97478800       3.13951600
18
Properties=species:S:1:pos:R:3 energy=-1967.191255171612 pbc="F F F"
C       -3.06183300       1.96924400       1.97990200
C       -1.95701300       2.72938900       1.60641200
C       -0.66447700       2.25410900       1.82113600
C       -0.49828000       1.00798500       2.42935600
C       -1.59732900       0.25352400       2.81745400
C       -2.88444300       0.73176300       2.58787800
H       -4.06023400       2.34559800       1.79646700
H       -3.74294500       0.13844400       2.87599600
H       -2.09910400       3.69659100       1.13920900
H        0.49957700       0.61233800       2.59096700
H       -1.45106300      -0.71156700       3.28552700
C        0.53192200       3.04618800       1.36339700
N        1.42987600       3.38330400       2.51953900
H        0.21253100       3.97557100       0.89074300
H        1.10858800       2.47950100       0.63271900
H        1.99779600       4.19347800       2.28146600
H        0.85051700       3.67470100       3.30374600
Cu       2.63510500       1.97563800       3.13528500
18
Properties=species:S:1:pos:R:3 energy=-1967.191257495336 pbc="F F F"
C       -3.06154000       1.97015300       1.98113200
C       -1.95642200       2.72954300       1.60653600
C       -0.66411800       2.25321800       1.82031100
C       -0.49830700       1.00653900       2.42777900
C       -1.59745300       0.25295000       2.81674100
C       -2.88440900       0.73249400       2.58872600
H       -4.05983900       2.34730900       1.79876900
H       -3.74305400       0.13981600       2.87779800
H       -2.09831100       3.69693400       1.13966000
H        0.49997400       0.61086400       2.58681500
H       -1.45183700      -0.71257400       3.28412900
C        0.53276700       3.04451400       1.36251200
N        1.42879600       3.38414900       2.51993900
H        0.21358200       3.97344900       0.88880800
H        1.11125200       2.47772100       0.63347700
H        1.99464400       4.19591800       2.28241700
H        0.84810900       3.67385400       3.30370200
Cu       2.63535800       1.97895000       3.13794700
18
Properties=species:S:1:pos:R:3 energy=-1967.191259229118 pbc="F F F"
C       -3.06135100       1.97054300       1.98174600
C       -1.95621200       2.72962200       1.60624500
C       -0.66399000       2.25283400       1.81952800
C       -0.49819200       1.00600500       2.42684500
C       -1.59717600       0.25281900       2.81657100
C       -2.88411400       0.73293400       2.58936500
H       -4.05964900       2.34796000       1.79992900
H       -3.74266800       0.14049200       2.87922300
H       -2.09825600       3.69702600       1.13945300
H        0.50075700       0.61124500       2.58418000
H       -1.45201500      -0.71281700       3.28387800
C        0.53310500       3.04363600       1.36174000
N        1.42829000       3.38412200       2.51993700
H        0.21400800       3.97285000       0.88844800
H        1.11272700       2.47764200       0.63311500
H        1.99322800       4.19664400       2.28289200
H        0.84706600       3.67280000       3.30366100
Cu       2.63363200       1.97944300       3.14044100
18
Properties=species:S:1:pos:R:3 energy=-1967.191261620886 pbc="F F F"
C       -3.06103300       1.97121000       1.98288700
C       -1.95583500       2.73011900       1.60729100
C       -0.66370200       2.25252100       1.81945100
C       -0.49809400       1.00526100       2.42589400
C       -1.59714000       0.25220600       2.81576600
C       -2.88398100       0.73304100       2.58945600
H       -4.05927600       2.34911600       1.80177900
H       -3.74256800       0.14053000       2.87907900
H       -2.09779000       3.69795200       1.14137600
H        0.50091800       0.61021700       2.58225900
H       -1.45235300      -0.71380600       3.28240000
C        0.53363800       3.04251900       1.36124600
N        1.42784800       3.38519500       2.51962800
H        0.21516600       3.97110600       0.88624700
H        1.11369800       2.47542100       0.63387000
H        1.99202500       4.19818000       2.28244700
H        0.84564000       3.67374800       3.30269600
Cu       2.63203100       1.98126700       3.14342500
18
Properties=species:S:1:pos:R:3 energy=-1967.191267705692 pbc="F F F"
C       -3.06032700       1.97220700       1.98507800
C       -1.95526500       2.73142700       1.61010800
C       -0.66315800       2.25247900       1.81990900
C       -0.49767300       1.00447300       2.42461500
C       -1.59664700       0.25101900       2.81424300
C       -2.88339300       0.73270700       2.58907700
H       -4.05854300       2.35069100       1.80500900
H       -3.74181400       0.13930500       2.87735900
H       -2.09734500       3.70024000       1.14632000
H        0.50153900       0.60933800       2.57988000
H       -1.45260900      -0.71567500       3.27965400
C        0.53429100       3.04094100       1.36030300
N        1.42809600       3.38740800       2.51783600
H        0.21723400       3.96836800       0.88197600
H        1.11404600       2.47140900       0.63459700
H        1.99149200       4.20058700       2.27979700
H        0.84472000       3.67650000       3.29997900
Cu       2.62454700       1.98237700       3.15145800
18
Properties=species:S:1:pos:R:3 energy=-1967.19126949919 pbc="F F F"
C       -3.06035000       1.97197800       1.98477900
C       -1.95527000       2.73136900       1.61032500
C       -0.66311400       2.25268200       1.82041000
C       -0.49763900       1.00470600       2.42513400
C       -1.59668500       0.25107700       2.81434900
C       -2.88345500       0.73247800       2.58877500
H       -4.05856000       2.35032600       1.80439600
H       -3.74189500       0.13894500       2.87671000
H       -2.09727700       3.70014600       1.14644100
H        0.50126100       0.60906800       2.58101200
H       -1.45251100      -0.71560300       3.27974700
C        0.53406300       3.04155400       1.36062100
N        1.42874300       3.38753700       2.51745600
H        0.21669900       3.96879400       0.88221100
H        1.11312700       2.47173200       0.63451300
H        1.99213000       4.20060400       2.27904500
H        0.84597100       3.67678300       3.30004700
Cu       2.62395500       1.98162800       3.15122700
18
Properties=species:S:1:pos:R:3 energy=-1967.191274634957 pbc="F F F"
C       -3.06066800       1.97059300       1.98291000
C       -1.95557500       2.73076300       1.61023800
C       -0.66306800       2.25380300       1.82217800
C       -0.49739800       1.00624100       2.42751500
C       -1.59658800       0.25191000       2.81530100
C       -2.88359200       0.73160900       2.58786400
H       -4.05894100       2.34800300       1.80093300
H       -3.74202400       0.13776200       2.87512400
H       -2.09740500       3.69897900       1.14510900
H        0.50023400       0.60854300       2.58586900
H       -1.45133800      -0.71448900       3.28097000
C        0.53294600       3.04491000       1.36192200
N        1.43158600       3.38716500       2.51615800
H        0.21362400       3.97189200       0.88466300
H        1.10909300       2.47486300       0.63335800
H        1.99533800       4.19957000       2.27642000
H        0.85205400       3.67713800       3.30100900
Cu       2.62091400       1.97654500       3.14965600
18
Properties=species:S:1:pos:R:3 energy=-1967.191275966174 pbc="F F F"
C       -3.06074000       1.97033200       1.98262000
C       -1.95565000       2.73062200       1.61013200
C       -0.66301800       2.25406300       1.82239200
C       -0.49728000       1.00657600       2.42778300
C       -1.59647900       0.25214900       2.81544000
C       -2.88355000       0.73147800       2.58785300
H       -4.05904100       2.34754700       1.80040900
H       -3.74198800       0.13768200       2.87520300
H       -2.09742200       3.69869300       1.14466900
H        0.50003100       0.60816900       2.58639900
H       -1.45077500      -0.71420700       3.28107200
C        0.53285800       3.04562400       1.36204000
N        1.43209900       3.38708300       2.51594900
H        0.21296300       3.97253400       0.88509000
H        1.10847600       2.47551100       0.63307600
H        1.99584900       4.19941800       2.27595600
H        0.85323000       3.67731000       3.30120300
Cu       2.61962800       1.97521800       3.14991000
18
Properties=species:S:1:pos:R:3 energy=-1967.191277784515 pbc="F F F"
C       -3.06078000       1.97005100       1.98243700
C       -1.95575700       2.73045900       1.60989900
C       -0.66288000       2.25446800       1.82240200
C       -0.49698500       1.00707000       2.42774200
C       -1.59614500       0.25255000       2.81554400
C       -2.88332000       0.73137900       2.58812500
H       -4.05914800       2.34699800       1.80006500
H       -3.74178600       0.13782200       2.87590000
H       -2.09744800       3.69831600       1.14394300
H        0.49983900       0.60735800       2.58630200
H       -1.44945400      -0.71375000       3.28100600
C        0.53298300       3.04653100       1.36189300
N        1.43264000       3.38698700       2.51571500
H        0.21210800       3.97336300       0.88552300
H        1.10802200       2.47627900       0.63259000
H        1.99623800       4.19936900       2.27548300
H        0.85452800       3.67771500       3.30133600
Cu       2.61653600       1.97283400       3.15129100
18
Properties=species:S:1:pos:R:3 energy=-1967.19127915678 pbc="F F F"
C       -3.06068500       1.97015800       1.98260700
C       -1.95566400       2.73043800       1.60985200
C       -0.66277600       2.25437100       1.82219900
C       -0.49692100       1.00693900       2.42743300
C       -1.59611200       0.25252100       2.81546900
C       -2.88325300       0.73146400       2.58832600
H       -4.05903900       2.34718900       1.80034200
H       -3.74182000       0.13813300       2.87626900
H       -2.09726400       3.69831900       1.14391300
H        0.49982000       0.60688500       2.58570900
H       -1.44915900      -0.71378000       3.28085300
C        0.53317300       3.04639100       1.36170600
N        1.43251000       3.38711000       2.51575600
H        0.21199500       3.97320600       0.88549900
H        1.10844900       2.47615900       0.63263200
H        1.99575600       4.19975500       2.27555600
H        0.85421700       3.67785100       3.30124800
Cu       2.61596600       1.97269100       3.15182700
18
Properties=species:S:1:pos:R:3 energy=-1967.191286462089 pbc="F F F"
C       -3.05978000       1.97120000       1.98443500
C       -1.95498100       2.73056200       1.60967100
C       -0.66198700       2.25352300       1.82017600
C       -0.49640500       1.00584600       2.42455500
C       -1.59567600       0.25213300       2.81481400
C       -2.88247900       0.73215700       2.59008500
H       -4.05808800       2.34889500       1.80329500
H       -3.74192000       0.14060000       2.87912000
H       -2.09602800       3.69881000       1.14427700
H        0.50006200       0.60384400       2.58019100
H       -1.44646600      -0.71407800       3.27967100
C        0.53495200       3.04452500       1.35973000
N        1.43085100       3.38817900       2.51635900
H        0.21177900       3.97152400       0.88510500
H        1.11298700       2.47477300       0.63293700
H        1.99179400       4.20256500       2.27651900
H        0.85011400       3.67987900       3.29966500
Cu       2.61046300       1.97086500       3.15659100
18
Properties=species:S:1:pos:R:3 energy=-1967.191288916521 pbc="F F F"
C       -3.05957400       1.97149300       1.98491500
C       -1.95473600       2.73073800       1.61011700
C       -0.66184000       2.25326200       1.82016900
C       -0.49641900       1.00537900       2.42419400
C       -1.59574100       0.25175700       2.81448600
C       -2.88246000       0.73221900       2.59011300
H       -4.05785200       2.34944300       1.80413700
H       -3.74201900       0.14072900       2.87893100
H       -2.09571800       3.69916900       1.14509600
H        0.50010600       0.60340900       2.57952500
H       -1.44674400      -0.71459500       3.27910700
C        0.53510300       3.04401800       1.35965600
N        1.43051700       3.38882700       2.51647100
H        0.21236300       3.97066600       0.88405600
H        1.11367700       2.47384100       0.63362700
H        1.99122700       4.20332000       2.27646800
H        0.84899400       3.68064800       3.29917700
Cu       2.61030800       1.97147600       3.15695500
18
Properties=species:S:1:pos:R:3 energy=-1967.191304958581 pbc="F F F"
C       -3.05816600       1.97289400       1.98813300
C       -1.95325900       2.73224000       1.61417100
C       -0.66081100       2.25202100       1.82132700
C       -0.49653000       1.00270000       2.42274700
C       -1.59590400       0.24895900       2.81245600
C       -2.88209100       0.73182600       2.58973500
H       -4.05643200       2.35196800       1.80950900
H       -3.74249200       0.14027000       2.87592600
H       -2.09418000       3.70192400       1.15185900
H        0.50066500       0.60153000       2.57609300
H       -1.44808400      -0.71840500       3.27522600
C        0.53574200       3.04115000       1.35962400
N        1.42912300       3.39417900       2.51718800
H        0.21649400       3.96541300       0.87709100
H        1.11797200       2.46863400       0.63823200
H        1.99028600       4.20716800       2.27360300
H        0.84230600       3.69079200       3.29415200
Cu       2.60455300       1.97053800       3.16012600
18
Properties=species:S:1:pos:R:3 energy=-1967.191307514824 pbc="F F F"
C       -3.05836700       1.97242200       1.98751300
C       -1.95338300       2.73200900       1.61411800
C       -0.66085400       2.25228000       1.82203200
C       -0.49660700       1.00302700       2.42361700
C       -1.59599400       0.24911700       2.81281800
C       -2.88224400       0.73150400       2.58940600
H       -4.05666000       2.35113700       1.80830400
H       -3.74258500       0.13977800       2.87541100
H       -2.09436200       3.70151200       1.15144800
H        0.50046200       0.60165900       2.57729300
H       -1.44817300      -0.71822400       3.27565000
C        0.53539400       3.04191200       1.36027600