
                                 *****************
                                 * O   R   C   A *
                                 *****************

                                            #,                                       
                                            ###                                      
                                            ####                                     
                                            #####                                    
                                            ######                                   
                                           ########,                                 
                                     ,,################,,,,,                         
                               ,,#################################,,                 
                          ,,##########################################,,             
                       ,#########################################, ''#####,          
                    ,#############################################,,   '####,        
                  ,##################################################,,,,####,       
                ,###########''''           ''''###############################       
              ,#####''   ,,,,##########,,,,          '''####'''          '####       
            ,##' ,,,,###########################,,,                        '##       
           ' ,,###''''                  '''############,,,                           
         ,,##''                                '''############,,,,        ,,,,,,###''
      ,#''                                            '''#######################'''  
     '                                                          ''''####''''         
             ,#######,   #######,   ,#######,      ##                                
            ,#'     '#,  ##    ##  ,#'     '#,    #''#        ######   ,####,        
            ##       ##  ##   ,#'  ##            #'  '#       #        #'  '#        
            ##       ##  #######   ##           ,######,      #####,   #    #        
            '#,     ,#'  ##    ##  '#,     ,#' ,#      #,         ##   #,  ,#        
             '#######'   ##     ##  '#######'  #'      '#     #####' # '####'        



                  #######################################################
                  #                        -***-                        #
                  #          Department of theory and spectroscopy      #
                  #    Directorship and core code : Frank Neese         #
                  #        Max Planck Institute fuer Kohlenforschung    #
                  #                Kaiser Wilhelm Platz 1               #
                  #                 D-45470 Muelheim/Ruhr               #
                  #                      Germany                        #
                  #                                                     #
                  #                  All rights reserved                #
                  #                        -***-                        #
                  #######################################################


                         Program Version 5.0.3 -  RELEASE  -


 With contributions from (in alphabetic order):
   Daniel Aravena         : Magnetic Suceptibility
   Michael Atanasov       : Ab Initio Ligand Field Theory (pilot matlab implementation)
   Alexander A. Auer      : GIAO ZORA, VPT2 properties, NMR spectrum
   Ute Becker             : Parallelization
   Giovanni Bistoni       : ED, misc. LED, open-shell LED, HFLD
   Martin Brehm           : Molecular dynamics
   Dmytro Bykov           : SCF Hessian
   Vijay G. Chilkuri      : MRCI spin determinant printing, contributions to CSF-ICE
   Dipayan Datta          : RHF DLPNO-CCSD density
   Achintya Kumar Dutta   : EOM-CC, STEOM-CC
   Dmitry Ganyushin       : Spin-Orbit,Spin-Spin,Magnetic field MRCI
   Miquel Garcia          : C-PCM and meta-GGA Hessian, CC/C-PCM, Gaussian charge scheme
   Yang Guo               : DLPNO-NEVPT2, F12-NEVPT2, CIM, IAO-localization
   Andreas Hansen         : Spin unrestricted coupled pair/coupled cluster methods
   Benjamin Helmich-Paris : MC-RPA, TRAH-SCF, COSX integrals
   Lee Huntington         : MR-EOM, pCC
   Robert Izsak           : Overlap fitted RIJCOSX, COSX-SCS-MP3, EOM
   Marcus Kettner         : VPT2
   Christian Kollmar      : KDIIS, OOCD, Brueckner-CCSD(T), CCSD density, CASPT2, CASPT2-K
   Simone Kossmann        : Meta GGA functionals, TD-DFT gradient, OOMP2, MP2 Hessian
   Martin Krupicka        : Initial AUTO-CI
   Lucas Lang             : DCDCAS
   Marvin Lechner         : AUTO-CI (C++ implementation), FIC-MRCC
   Dagmar Lenk            : GEPOL surface, SMD
   Dimitrios Liakos       : Extrapolation schemes; Compound Job, initial MDCI parallelization
   Dimitrios Manganas     : Further ROCIS development; embedding schemes
   Dimitrios Pantazis     : SARC Basis sets
   Anastasios Papadopoulos: AUTO-CI, single reference methods and gradients
   Taras Petrenko         : DFT Hessian,TD-DFT gradient, ASA, ECA, R-Raman, ABS, FL, XAS/XES, NRVS
   Peter Pinski           : DLPNO-MP2, DLPNO-MP2 Gradient
   Christoph Reimann      : Effective Core Potentials
   Marius Retegan         : Local ZFS, SOC
   Christoph Riplinger    : Optimizer, TS searches, QM/MM, DLPNO-CCSD(T), (RO)-DLPNO pert. Triples
   Tobias Risthaus        : Range-separated hybrids, TD-DFT gradient, RPA, STAB
   Michael Roemelt        : Original ROCIS implementation
   Masaaki Saitow         : Open-shell DLPNO-CCSD energy and density
   Barbara Sandhoefer     : DKH picture change effects
   Avijit Sen             : IP-ROCIS
   Kantharuban Sivalingam : CASSCF convergence, NEVPT2, FIC-MRCI
   Bernardo de Souza      : ESD, SOC TD-DFT
   Georgi Stoychev        : AutoAux, RI-MP2 NMR, DLPNO-MP2 response
   Willem Van den Heuvel  : Paramagnetic NMR
   Boris Wezisla          : Elementary symmetry handling
   Frank Wennmohs         : Technical directorship


 We gratefully acknowledge several colleagues who have allowed us to
 interface, adapt or use parts of their codes:
   Stefan Grimme, W. Hujo, H. Kruse, P. Pracht,  : VdW corrections, initial TS optimization,
                  C. Bannwarth, S. Ehlert          DFT functionals, gCP, sTDA/sTD-DF
   Ed Valeev, F. Pavosevic, A. Kumar             : LibInt (2-el integral package), F12 methods
   Garnet Chan, S. Sharma, J. Yang, R. Olivares  : DMRG
   Ulf Ekstrom                                   : XCFun DFT Library
   Mihaly Kallay                                 : mrcc  (arbitrary order and MRCC methods)
   Jiri Pittner, Ondrej Demel                    : Mk-CCSD
   Frank Weinhold                                : gennbo (NPA and NBO analysis)
   Christopher J. Cramer and Donald G. Truhlar   : smd solvation model
   Lars Goerigk                                  : TD-DFT with DH, B97 family of functionals
   V. Asgeirsson, H. Jonsson                     : NEB implementation
   FAccTs GmbH                                   : IRC, NEB, NEB-TS, DLPNO-Multilevel, CI-OPT
                                                   MM, QMMM, 2- and 3-layer-ONIOM, Crystal-QMMM,
                                                   LR-CPCM, SF, NACMEs, symmetry and pop. for TD-DFT,
                                                   nearIR, NL-DFT gradient (VV10), updates on ESD,
                                                   ML-optimized integration grids
   S Lehtola, MJT Oliveira, MAL Marques          : LibXC Library
   Liviu Ungur et al                             : ANISO software


 Your calculation uses the libint2 library for the computation of 2-el integrals
 For citations please refer to: http://libint.valeyev.net

 Your ORCA version has been built with support for libXC version: 5.1.0
 For citations please refer to: https://tddft.org/programs/libxc/

 This ORCA versions uses:
   CBLAS   interface :  Fast vector & matrix operations
   LAPACKE interface :  Fast linear algebra routines
   SCALAPACK package :  Parallel linear algebra routines
   Shared memory     :  Shared parallel matrices
   BLAS/LAPACK       :  OpenBLAS 0.3.15  USE64BITINT DYNAMIC_ARCH NO_AFFINITY Haswell SINGLE_THREADED
        Core in use  :  Haswell
   Copyright (c) 2011-2014, The OpenBLAS Project




***************************************
The coordinates will be read from file: orca_IRC_B.xyz
***************************************


Your calculation utilizes the atom-pairwise dispersion correction
with the Becke-Johnson damping scheme (D3BJ)
Cite in your paper:
S.Grimme, S.Ehrlich, L.Goerigk, J Comput Chem, (2011), 32, 1456–1465 
S.Grimme, J.Antony, S.Ehrlich and H.Krieg, J.Chem.Phys., 132, (2010), 154104 
   

================================================================================

----- Orbital basis set information -----
Your calculation utilizes the basis: def2-TZVP
   F. Weigend and R. Ahlrichs, Phys. Chem. Chem. Phys. 7, 3297 (2005).

----- AuxJ basis set information -----
Your calculation utilizes the auxiliary basis: def2/J
   F. Weigend, Phys. Chem. Chem. Phys. 8, 1057 (2006).

================================================================================
                                        WARNINGS
                       Please study these warnings very carefully!
================================================================================


WARNING: Geometry Optimization
  ===> : Switching off AutoStart
         For restart on a previous wavefunction, please use MOREAD

INFO   : the flag for use of the SHARK integral package has been found!

================================================================================
                                       INPUT FILE
================================================================================
NAME = orca.inp
|  1> !B3LYP DEF2-TZVP D3BJ 
|  2> !OPT FREQ TIGHTOPT TightSCF defgrid2
|  3> %SCF
|  4>     MaxIter 2000       # Here setting MaxIter to a very high number. Intended for systems that require sometimes 1000 iterations before converging (very rare).
|  5>     DIISMaxEq 5        # Default value is 5. A value of 15-40 necessary for difficult systems.
|  6>     directresetfreq 15 # Default value is 15. A value of 1 (very expensive) is sometimes required. A value between 1 and 15 may be more cost-effective.
|  7> END
|  8> %CPCM EPSILON 6.02 REFRAC 1.3723 END
|  9> %PAL NPROCS 32 END
| 10> %maxcore 2000 # This indicates you want ORCA to use only 2GB per core maximum, so ORCA will use only 2GB*32=64GB of memory in total.
| 11> * xyzfile 1 1 orca_IRC_B.xyz
| 12> 
| 13> 
| 14>                          ****END OF INPUT****
================================================================================

                       *****************************
                       * Geometry Optimization Run *
                       *****************************

Geometry optimization settings:
Update method            Update   .... BFGS
Choice of coordinates    CoordSys .... Z-matrix Internals
Initial Hessian          InHess   .... Almoef's Model

Convergence Tolerances:
Energy Change            TolE     ....  1.0000e-06 Eh
Max. Gradient            TolMAXG  ....  1.0000e-04 Eh/bohr
RMS Gradient             TolRMSG  ....  3.0000e-05 Eh/bohr
Max. Displacement        TolMAXD  ....  1.0000e-03 bohr
RMS Displacement         TolRMSD  ....  6.0000e-04 bohr
Strict Convergence                ....  False
------------------------------------------------------------------------------
                        ORCA OPTIMIZATION COORDINATE SETUP
------------------------------------------------------------------------------

The optimization will be done in new redundant internal coordinates
Making redundant internal coordinates   ...  (new redundants) done
Evaluating the initial hessian          ...  (Almloef) done
Evaluating the coordinates              ...  done
Calculating the B-matrix                .... done
Calculating the G-matrix                .... done
Diagonalizing the G-matrix              .... done
Small eigenvalue found = 2.186e-02
The first mode is                       ....   39
The number of degrees of freedom        ....   48

    -----------------------------------------------------------------
                    Redundant Internal Coordinates


    -----------------------------------------------------------------
         Definition                    Initial Value    Approx d2E/dq
    -----------------------------------------------------------------
      1. B(C   1,C   0)                  1.3875         0.630489   
      2. B(C   2,C   1)                  1.3961         0.610886   
      3. B(C   3,C   2)                  1.3940         0.615735   
      4. B(C   4,C   3)                  1.3937         0.616401   
      5. B(C   5,C   4)                  1.3895         0.625987   
      6. B(C   5,C   0)                  1.3920         0.620226   
      7. B(H   6,C   0)                  1.0826         0.370023   
      8. B(H   7,C   5)                  1.0822         0.370553   
      9. B(H   8,C   1)                  1.0838         0.368364   
     10. B(H   9,C   3)                  1.0837         0.368576   
     11. B(H  10,C   4)                  1.0827         0.369827   
     12. B(C  11,C   2)                  1.5066         0.407042   
     13. B(N  12,C  11)                  1.4982         0.376024   
     14. B(H  13,C  11)                  1.0892         0.361160   
     15. B(H  14,C  11)                  1.0905         0.359380   
     16. B(H  15,N  12)                  1.0166         0.422378   
     17. B(H  16,N  12)                  1.0171         0.421618   
     18. B(Cu 17,N  12)                  1.9495         0.725133   
     19. A(C   5,C   0,H   6)          120.2986         0.354560   
     20. A(C   1,C   0,H   6)          119.6882         0.355548   
     21. A(C   1,C   0,C   5)          120.0132         0.435407   
     22. A(C   0,C   1,H   8)          119.9044         0.355277   
     23. A(C   0,C   1,C   2)          120.8842         0.434220   
     24. A(C   2,C   1,H   8)          119.2098         0.353380   
     25. A(C   1,C   2,C   3)          118.8223         0.432374   
     26. A(C   1,C   2,C  11)          117.3775         0.401667   
     27. A(C   3,C   2,C  11)          123.7063         0.402227   
     28. A(C   2,C   3,C   4)          120.3524         0.433074   
     29. A(C   2,C   3,H   9)          121.0739         0.353888   
     30. A(C   4,C   3,H   9)          118.5697         0.353953   
     31. A(C   3,C   4,H  10)          119.6524         0.354156   
     32. A(C   3,C   4,C   5)          120.3651         0.434362   
     33. A(C   5,C   4,H  10)          119.9801         0.355084   
     34. A(C   0,C   5,C   4)          119.5527         0.434846   
     35. A(C   4,C   5,H   7)          120.2880         0.355202   
     36. A(C   0,C   5,H   7)          120.1593         0.354646   
     37. A(H  13,C  11,H  14)          106.9178         0.290882   
     38. A(N  12,C  11,H  14)          108.0159         0.322622   
     39. A(C   2,C  11,H  14)          108.6095         0.328824   
     40. A(N  12,C  11,H  13)          108.6434         0.322883   
     41. A(C   2,C  11,H  13)          109.4832         0.329093   
     42. A(C   2,C  11,N  12)          114.8748         0.366840   
     43. A(H  16,N  12,Cu 17)          110.0793         0.410572   
     44. A(H  15,N  12,Cu 17)          108.1376         0.410703   
     45. A(C  11,N  12,Cu 17)          113.4605         0.452555   
     46. A(H  15,N  12,H  16)          105.1853         0.300840   
     47. A(C  11,N  12,H  16)          110.4455         0.328399   
     48. A(C  11,N  12,H  15)          109.1698         0.328497   
     49. D(H   8,C   1,C   0,H   6)      0.2583         0.027565   
     50. D(C   2,C   1,C   0,H   6)   -179.2831         0.027565   
     51. D(C   2,C   1,C   0,C   5)      0.8043         0.027565   
     52. D(H   8,C   1,C   0,C   5)   -179.6543         0.027565   
     53. D(C   3,C   2,C   1,C   0)     -0.9945         0.025778   
     54. D(C  11,C   2,C   1,H   8)     -3.9310         0.025778   
     55. D(C   3,C   2,C   1,H   8)    179.4610         0.025778   
     56. D(C  11,C   2,C   1,C   0)    175.6136         0.025778   
     57. D(H   9,C   3,C   2,C  11)      3.1672         0.026213   
     58. D(H   9,C   3,C   2,C   1)    179.5462         0.026213   
     59. D(C   4,C   3,C   2,C  11)   -176.0906         0.026213   
     60. D(C   4,C   3,C   2,C   1)      0.2885         0.026213   
     61. D(C   5,C   4,C   3,H   9)   -178.6690         0.026273   
     62. D(H  10,C   4,C   3,C   2)   -179.9645         0.026273   
     63. D(C   5,C   4,C   3,C   2)      0.6071         0.026273   
     64. D(H  10,C   4,C   3,H   9)      0.7594         0.026273   
     65. D(H   7,C   5,C   4,H  10)     -0.2625         0.027148   
     66. D(C   0,C   5,C   4,H  10)    179.7696         0.027148   
     67. D(C   0,C   5,C   4,C   3)     -0.8039         0.027148   
     68. D(H   7,C   5,C   0,H   6)      0.2233         0.026620   
     69. D(C   4,C   5,C   0,H   6)   -179.8088         0.026620   
     70. D(H   7,C   5,C   4,C   3)    179.1640         0.027148   
     71. D(C   4,C   5,C   0,C   1)      0.1033         0.026620   
     72. D(H   7,C   5,C   0,C   1)   -179.8647         0.026620   
     73. D(H  14,C  11,C   2,C   3)     95.2356         0.012278   
     74. D(H  14,C  11,C   2,C   1)    -81.1919         0.012278   
     75. D(H  13,C  11,C   2,C   3)   -148.3518         0.012278   
     76. D(H  13,C  11,C   2,C   1)     35.2206         0.012278   
     77. D(N  12,C  11,C   2,C   3)    -25.8177         0.012278   
     78. D(N  12,C  11,C   2,C   1)    157.7548         0.012278   
     79. D(H  15,N  12,C  11,C   2)   -129.5753         0.012956   
     80. D(Cu 17,N  12,C  11,H  13)   -127.2639         0.012956   
     81. D(Cu 17,N  12,C  11,C   2)    109.7509         0.012956   
     82. D(H  16,N  12,C  11,H  14)   -135.7663         0.012956   
     83. D(H  16,N  12,C  11,H  13)    108.5964         0.012956   
     84. D(H  16,N  12,C  11,C   2)    -14.3888         0.012956   
     85. D(H  15,N  12,C  11,H  14)    109.0472         0.012956   
     86. D(Cu 17,N  12,C  11,H  14)    -11.6266         0.012956   
     87. D(H  15,N  12,C  11,H  13)     -6.5901         0.012956   
    -----------------------------------------------------------------

Number of atoms                         .... 18
Number of degrees of freedom            .... 87

         *************************************************************
         *                GEOMETRY OPTIMIZATION CYCLE   1            *
         *************************************************************
---------------------------------
CARTESIAN COORDINATES (ANGSTROEM)
---------------------------------
  C     -3.070690    1.838258    1.690099
  C     -1.961255    2.626682    1.420312
  C     -0.712505    2.316010    1.961867
  C     -0.600213    1.207402    2.799453
  C     -1.716751    0.422990    3.082984
  C     -2.951181    0.730050    2.523917
  H     -4.027362    2.090399    1.250524
  H     -3.814462    0.112220    2.734189
  H     -2.057512    3.492373    0.775341
  H      0.352709    0.928759    3.233770
  H     -1.616753   -0.435232    3.735512
  C      0.457508    3.164896    1.537082
  N      1.617880    3.158324    2.484795
  H      0.128111    4.193610    1.397076
  H      0.811209    2.810303    0.568347
  H      1.890637    4.116902    2.685199
  H      1.341659    2.766829    3.381935
  Cu     3.178162    2.215024    1.794795

----------------------------
CARTESIAN COORDINATES (A.U.)
----------------------------
  NO LB      ZA    FRAG     MASS         X           Y           Z
   0 C     6.0000    0    12.011   -5.802763    3.473804    3.193825
   1 C     6.0000    0    12.011   -3.706235    4.963710    2.684001
   2 C     6.0000    0    12.011   -1.346439    4.376624    3.707391
   3 C     6.0000    0    12.011   -1.134237    2.281659    5.290200
   4 C     6.0000    0    12.011   -3.244189    0.799335    5.825996
   5 C     6.0000    0    12.011   -5.576924    1.379594    4.769512
   6 H     1.0000    0     1.008   -7.610612    3.950281    2.363148
   7 H     1.0000    0     1.008   -7.208288    0.212066    5.166868
   8 H     1.0000    0     1.008   -3.888134    6.599629    1.465182
   9 H     1.0000    0     1.008    0.666524    1.755101    6.110940
  10 H     1.0000    0     1.008   -3.055220   -0.822468    7.059095
  11 C     6.0000    0    12.011    0.864564    5.980787    2.904664
  12 N     7.0000    0    14.007    3.057350    5.968367    4.695582
  13 H     1.0000    0     1.008    0.242094    7.924775    2.640092
  14 H     1.0000    0     1.008    1.532963    5.310703    1.074021
  15 H     1.0000    0     1.008    3.572786    7.779817    5.074290
  16 H     1.0000    0     1.008    2.535368    5.228549    6.390931
  17 Cu   29.0000    0    63.550    6.005856    4.185789    3.391671

--------------------------------
INTERNAL COORDINATES (ANGSTROEM)
--------------------------------
 C      0   0   0     0.000000000000     0.00000000     0.00000000
 C      1   0   0     1.387531262555     0.00000000     0.00000000
 C      2   1   0     1.396128970794   120.88423059     0.00000000
 C      3   2   1     1.393976863628   118.82225702   359.00549665
 C      4   3   2     1.393682594681   120.35235225     0.28847147
 C      5   4   3     1.389481830023   120.36505428     0.60710712
 H      1   2   3     1.082600415209   119.68818895   180.71688396
 H      6   5   4     1.082210966268   120.28799900   179.16404201
 H      2   1   3     1.083823659734   119.90441350   179.54138337
 H      4   3   2     1.083666663345   121.07390855   179.54621949
 H      5   4   3     1.082744540430   119.65241471   180.03554909
 C      3   2   1     1.506645089488   117.37750594   175.61356733
 N     12   3   2     1.498221224278   114.87476341   157.75479593
 H     12   3   2     1.089199920948   109.48318226    35.22063546
 H     12   3   2     1.090544777924   108.60952452   278.80807469
 H     13  12   3     1.016577442338   109.16979858   230.42471227
 H     13  12   3     1.017067651569   110.44548234   345.61120900
 Cu    13  12   3     1.949459988296   113.46046269   109.75090880

---------------------------
INTERNAL COORDINATES (A.U.)
---------------------------
 C      0   0   0     0.000000000000     0.00000000     0.00000000
 C      1   0   0     2.622054088482     0.00000000     0.00000000
 C      2   1   0     2.638301402434   120.88423059     0.00000000
 C      3   2   1     2.634234509280   118.82225702   359.00549665
 C      4   3   2     2.633678421560   120.35235225     0.28847147
 C      5   4   3     2.625740126802   120.36505428     0.60710712
 H      1   2   3     2.045818297214   119.68818895   180.71688396
 H      6   5   4     2.045082345372   120.28799900   179.16404201
 H      2   1   3     2.048129894361   119.90441350   179.54138337
 H      4   3   2     2.047833214182   121.07390855   179.54621949
 H      5   4   3     2.046090654410   119.65241471   180.03554909
 C      3   2   1     2.847146600150   117.37750594   175.61356733
 N     12   3   2     2.831227801913   114.87476341   157.75479593
 H     12   3   2     2.058289555680   109.48318226    35.22063546
 H     12   3   2     2.060830967054   108.60952452   278.80807469
 H     13  12   3     1.921052959942   109.16979858   230.42471227
 H     13  12   3     1.921979321136   110.44548234   345.61120900
 Cu    13  12   3     3.683945486916   113.46046269   109.75090880

---------------------
BASIS SET INFORMATION
---------------------
There are 4 groups of distinct atoms

 Group   1 Type C   : 11s6p2d1f contracted to 5s3p2d1f pattern {62111/411/11/1}
 Group   2 Type H   : 5s1p contracted to 3s1p pattern {311/1}
 Group   3 Type N   : 11s6p2d1f contracted to 5s3p2d1f pattern {62111/411/11/1}
 Group   4 Type Cu  : 17s11p7d1f contracted to 6s4p4d1f pattern {842111/6311/4111/1}

Atom   0C    basis set group =>   1
Atom   1C    basis set group =>   1
Atom   2C    basis set group =>   1
Atom   3C    basis set group =>   1
Atom   4C    basis set group =>   1
Atom   5C    basis set group =>   1
Atom   6H    basis set group =>   2
Atom   7H    basis set group =>   2
Atom   8H    basis set group =>   2
Atom   9H    basis set group =>   2
Atom  10H    basis set group =>   2
Atom  11C    basis set group =>   1
Atom  12N    basis set group =>   3
Atom  13H    basis set group =>   2
Atom  14H    basis set group =>   2
Atom  15H    basis set group =>   2
Atom  16H    basis set group =>   2
Atom  17Cu   basis set group =>   4
---------------------------------
AUXILIARY/J BASIS SET INFORMATION
---------------------------------
There are 4 groups of distinct atoms

 Group   1 Type C   : 12s5p4d2f1g contracted to 6s4p3d1f1g pattern {711111/2111/211/2/1}
 Group   2 Type H   : 5s2p1d contracted to 3s1p1d pattern {311/2/1}
 Group   3 Type N   : 12s5p4d2f1g contracted to 6s4p3d1f1g pattern {711111/2111/211/2/1}
 Group   4 Type Cu  : 19s5p5d3f3g contracted to 8s5p4d3f3g pattern {121111111/11111/2111/111/111}

Atom   0C    basis set group =>   1
Atom   1C    basis set group =>   1
Atom   2C    basis set group =>   1
Atom   3C    basis set group =>   1
Atom   4C    basis set group =>   1
Atom   5C    basis set group =>   1
Atom   6H    basis set group =>   2
Atom   7H    basis set group =>   2
Atom   8H    basis set group =>   2
Atom   9H    basis set group =>   2
Atom  10H    basis set group =>   2
Atom  11C    basis set group =>   1
Atom  12N    basis set group =>   3
Atom  13H    basis set group =>   2
Atom  14H    basis set group =>   2
Atom  15H    basis set group =>   2
Atom  16H    basis set group =>   2
Atom  17Cu   basis set group =>   4


           ************************************************************
           *        Program running with 32 parallel MPI-processes    *
           *              working on a common directory               *
           ************************************************************
------------------------------------------------------------------------------
                           ORCA GTO INTEGRAL CALCULATION
                           -- RI-GTO INTEGRALS CHOSEN --
------------------------------------------------------------------------------
------------------------------------------------------------------------------
                   ___                                                        
                  /   \      - P O W E R E D   B Y -                         
                 /     \                                                     
                 |  |  |   _    _      __       _____    __    __             
                 |  |  |  | |  | |    /  \     |  _  \  |  |  /  |          
                  \  \/   | |  | |   /    \    | | | |  |  | /  /          
                 / \  \   | |__| |  /  /\  \   | |_| |  |  |/  /          
                |  |  |   |  __  | /  /__\  \  |    /   |      \           
                |  |  |   | |  | | |   __   |  |    \   |  |\   \          
                \     /   | |  | | |  |  |  |  | |\  \  |  | \   \       
                 \___/    |_|  |_| |__|  |__|  |_| \__\ |__|  \__/        
                                                                              
                      - O R C A' S   B I G   F R I E N D -                    
                                      &                                       
                       - I N T E G R A L  F E E D E R -                       
                                                                              
 v1 FN, 2020, v2 2021                                                         
------------------------------------------------------------------------------


Reading SHARK input file orca.SHARKINP.tmp ... ok
----------------------
SHARK INTEGRAL PACKAGE
----------------------

Number of atoms                             ...     18
Number of basis functions                   ...    347
Number of shells                            ...    139
Maximum angular momentum                    ...      3
Integral batch strategy                     ... SHARK/LIBINT Hybrid
RI-J (if used) integral strategy            ... SPLIT-RIJ (Revised 2003 algorithm where possible)
Printlevel                                  ...      1
Contraction scheme used                     ... SEGMENTED contraction
Coulomb Range Separation                    ... NOT USED
Exchange Range Separation                   ... NOT USED
Finite Nucleus Model                        ... NOT USED
Auxiliary Coulomb fitting basis             ... AVAILABLE
   # of basis functions in Aux-J            ...    582
   # of shells in Aux-J                     ...    188
   Maximum angular momentum in Aux-J        ...      4
Auxiliary J/K fitting basis                 ... NOT available
Auxiliary Correlation fitting basis         ... NOT available
Auxiliary 'external' fitting basis          ... NOT available
Integral threshold                          ...     2.500000e-11
Primitive cut-off                           ...     2.500000e-12
Primitive pair pre-selection threshold      ...     2.500000e-12

Calculating pre-screening integrals         ... done (  0.1 sec) Dimension = 139
Organizing shell pair data                  ... done (  0.8 sec)
Shell pair information
Total number of shell pairs                 ...      9730
Shell pairs after pre-screening             ...      8514
Total number of primitive shell pairs       ...     31637
Primitive shell pairs kept                  ...     19842
          la=0 lb=0:   2296 shell pairs
          la=1 lb=0:   2373 shell pairs
          la=1 lb=1:    637 shell pairs
          la=2 lb=0:   1294 shell pairs
          la=2 lb=1:    672 shell pairs
          la=2 lb=2:    191 shell pairs
          la=3 lb=0:    558 shell pairs
          la=3 lb=1:    297 shell pairs
          la=3 lb=2:    157 shell pairs
          la=3 lb=3:     39 shell pairs

Calculating one electron integrals          ... done (  0.2 sec)
Calculating RI/J V-Matrix + Cholesky decomp.... done (  2.6 sec)
Calculating Nuclear repulsion               ... done (  0.0 sec) ENN=    575.010880885245 Eh

SHARK setup successfully completed in   6.2 seconds

Maximum memory used throughout the entire GTOINT-calculation: 25.4 MB


           ************************************************************
           *        Program running with 32 parallel MPI-processes    *
           *              working on a common directory               *
           ************************************************************
-------------------------------------------------------------------------------
                                 ORCA SCF
-------------------------------------------------------------------------------

------------
SCF SETTINGS
------------
Hamiltonian:
 Density Functional     Method          .... DFT(GTOs)
 Exchange Functional    Exchange        .... B88
   X-Alpha parameter    XAlpha          ....  0.666667
   Becke's b parameter  XBeta           ....  0.004200
 Correlation Functional Correlation     .... LYP
 LDA part of GGA corr.  LDAOpt          .... VWN-5
 Gradients option       PostSCFGGA      .... off
 Hybrid DFT is turned on
   Fraction HF Exchange ScalHFX         ....  0.200000
   Scaling of DF-GGA-X  ScalDFX         ....  0.720000
   Scaling of DF-GGA-C  ScalDFC         ....  0.810000
   Scaling of DF-LDA-C  ScalLDAC        ....  1.000000
   Perturbative correction              ....  0.000000
   Density functional embedding theory  .... OFF
   NL short-range parameter             ....  4.800000
 RI-approximation to the Coulomb term is turned on
   Number of AuxJ basis functions       .... 582
   RIJ-COSX (HFX calculated with COS-X)).... on


General Settings:
 Integral files         IntName         .... orca
 Hartree-Fock type      HFTyp           .... RHF
 Total Charge           Charge          ....    1
 Multiplicity           Mult            ....    1
 Number of Electrons    NEL             ....   86
 Basis Dimension        Dim             ....  347
 Nuclear Repulsion      ENuc            ....    575.0108808852 Eh

Convergence Acceleration:
 DIIS                   CNVDIIS         .... on
   Start iteration      DIISMaxIt       ....    12
   Startup error        DIISStart       ....  0.200000
   # of expansion vecs  DIISMaxEq       ....     5
   Bias factor          DIISBfac        ....   1.050
   Max. coefficient     DIISMaxC        ....  10.000
 Trust-Rad. Augm. Hess. CNVTRAH         .... auto
   Auto Start mean grad. ratio tolernc. ....  1.125000
   Auto Start start iteration           ....    20
   Auto Start num. interpolation iter.  ....    10
   Max. Number of Micro iterations      ....    16
   Max. Number of Macro iterations      .... Maxiter - #DIIS iter
   Number of Davidson start vectors     ....     2
   Converg. threshold I  (grad. norm)   ....   1.000e-05
   Converg. threshold II (energy diff.) ....   1.000e-08
   Grad. Scal. Fac. for Micro threshold ....   0.100
   Minimum threshold for Micro iter.    ....   0.010
   NR start threshold (gradient norm)   ....   0.001
   Initial trust radius                 ....   0.400
   Minimum AH scaling param. (alpha)    ....   1.000
   Maximum AH scaling param. (alpha)    .... 1000.000
   Orbital update algorithm             .... Taylor
   White noise on init. David. guess    .... on
   Maximum white noise                  ....   0.010
   Quad. conv. algorithm                .... NR
 SOSCF                  CNVSOSCF        .... off
 Level Shifting         CNVShift        .... on
   Level shift para.    LevelShift      ....    0.2500
   Turn off err/grad.   ShiftErr        ....    0.0010
 Zerner damping         CNVZerner       .... off
 Static damping         CNVDamp         .... on
   Fraction old density DampFac         ....    0.7000
   Max. Damping (<1)    DampMax         ....    0.9800
   Min. Damping (>=0)   DampMin         ....    0.0000
   Turn off err/grad.   DampErr         ....    0.1000
 Fernandez-Rico         CNVRico         .... off

SCF Procedure:
 Maximum # iterations   MaxIter         ....  2000
 SCF integral mode      SCFMode         .... Direct
   Integral package                     .... SHARK and LIBINT hybrid scheme
 Reset frequency        DirectResetFreq ....    15
 Integral Threshold     Thresh          ....  2.500e-11 Eh
 Primitive CutOff       TCut            ....  2.500e-12 Eh

Convergence Tolerance:
 Convergence Check Mode ConvCheckMode   .... Total+1el-Energy
 Convergence forced     ConvForced      .... 0
 Energy Change          TolE            ....  1.000e-08 Eh
 1-El. energy change                    ....  1.000e-05 Eh
 DIIS Error             TolErr          ....  5.000e-07


Diagonalization of the overlap matrix:
Smallest eigenvalue                        ... 8.434e-06
Time for diagonalization                   ...    0.091 sec
Threshold for overlap eigenvalues          ... 1.000e-08
Number of eigenvalues below threshold      ... 0
Time for construction of square roots      ...    0.579 sec
Total time needed                          ...    1.234 sec

Time for model grid setup =    1.866 sec

------------------------------
INITIAL GUESS: MODEL POTENTIAL
------------------------------
Loading Hartree-Fock densities                     ... done
Calculating cut-offs                               ... done
Initializing the effective Hamiltonian             ... done
Setting up the integral package (SHARK)            ... done
Starting the Coulomb interaction                   ... done (   2.5 sec)
Reading the grid                                   ... done
Mapping shells                                     ... done
Starting the XC term evaluation                    ... done (   0.3 sec)
  promolecular density results
     # of electrons  =     86.989785960
     EX              =   -111.058692938
     EC              =     -3.302801854
     EX+EC           =   -114.361494792
Transforming the Hamiltonian                       ... done (   1.3 sec)
Diagonalizing the Hamiltonian                      ... done (   1.4 sec)
Back transforming the eigenvectors                 ... done (   0.1 sec)
Now organizing SCF variables                       ... done
                      ------------------
                      INITIAL GUESS DONE (   8.4 sec)
                      ------------------
-------------------
DFT GRID GENERATION
-------------------

General Integration Accuracy     IntAcc      ... 4.388
Radial Grid Type                 RadialGrid  ... OptM3 with GC (2021)
Angular Grid (max. ang.)         AngularGrid ... 4 (Lebedev-302)
Angular grid pruning method      GridPruning ... 4 (adaptive)
Weight generation scheme         WeightScheme... Becke
Basis function cutoff            BFCut       ... 1.0000e-11
Integration weight cutoff        WCut        ... 1.0000e-14
Angular grids for H and He will be reduced by one unit
Partially contracted basis set               ... off
Rotationally invariant grid construction     ... off

Total number of grid points                  ...    88094
Total number of batches                      ...     1384
Average number of points per batch           ...       63
Average number of grid points per atom       ...     4894
Time for grid setup =    4.260 sec

--------------------
COSX GRID GENERATION
--------------------

GRIDX 1
-------
General Integration Accuracy     IntAcc      ... 3.816
Radial Grid Type                 RadialGrid  ... OptM3 with GC (2021)
Angular Grid (max. ang.)         AngularGrid ... 1 (Lebedev-50)
Angular grid pruning method      GridPruning ... 4 (adaptive)
Weight generation scheme         WeightScheme... Becke
Basis function cutoff            BFCut       ... 1.0000e-11
Integration weight cutoff        WCut        ... 1.0000e-14
Angular grids for H and He will be reduced by one unit
Partially contracted basis set               ... on
Rotationally invariant grid construction     ... off

Total number of grid points                  ...    11043
Total number of batches                      ...      180
Average number of points per batch           ...       61
Average number of grid points per atom       ...      614
UseSFitting                                  ... on

GRIDX 2
-------
General Integration Accuracy     IntAcc      ... 4.020
Radial Grid Type                 RadialGrid  ... OptM3 with GC (2021)
Angular Grid (max. ang.)         AngularGrid ... 2 (Lebedev-110)
Angular grid pruning method      GridPruning ... 4 (adaptive)
Weight generation scheme         WeightScheme... Becke
Basis function cutoff            BFCut       ... 1.0000e-11
Integration weight cutoff        WCut        ... 1.0000e-14
Angular grids for H and He will be reduced by one unit
Partially contracted basis set               ... on
Rotationally invariant grid construction     ... off

Total number of grid points                  ...    23767
Total number of batches                      ...      380
Average number of points per batch           ...       62
Average number of grid points per atom       ...     1320
UseSFitting                                  ... on

GRIDX 3
-------
General Integration Accuracy     IntAcc      ... 4.338
Radial Grid Type                 RadialGrid  ... OptM3 with GC (2021)
Angular Grid (max. ang.)         AngularGrid ... 3 (Lebedev-194)
Angular grid pruning method      GridPruning ... 4 (adaptive)
Weight generation scheme         WeightScheme... Becke
Basis function cutoff            BFCut       ... 1.0000e-11
Integration weight cutoff        WCut        ... 1.0000e-14
Angular grids for H and He will be reduced by one unit
Partially contracted basis set               ... on
Rotationally invariant grid construction     ... off

Total number of grid points                  ...    52299
Total number of batches                      ...      828
Average number of points per batch           ...       63
Average number of grid points per atom       ...     2906
UseSFitting                                  ... on

Time for X-Grid setup             =    8.858 sec


--------------------
CPCM SOLVATION MODEL
--------------------
CPCM parameters:
  Epsilon                                         ...       6.0200
  Refrac                                          ...       1.3723
  Rsolv                                           ...       1.3000
  Surface type                                    ... GAUSSIAN VDW
  Epsilon function type                           ...         CPCM
Radii:
 Radius for C  used is    3.8550 Bohr (=   2.0400 Ang.)
 Radius for H  used is    2.4944 Bohr (=   1.3200 Ang.)
 Radius for N  used is    3.5149 Bohr (=   1.8600 Ang.)
 Radius for Cu used is    3.1747 Bohr (=   1.6800 Ang.)
Calculating surface                               ...        done! (  0.0s)
GEPOL surface points                              ...         1021
GEPOL Volume                                      ...    1078.6457
GEPOL Surface-area                                ...     621.1115
Calculating surface distance matrix               ...        done! (  0.0s)
Performing Cholesky decomposition & store         ...        done! (  5.6s)
Overall time for CPCM initialization              ...                 5.6s
--------------
SCF ITERATIONS
--------------
ITER       Energy         Delta-E        Max-DP      RMS-DP      [F,P]     Damp
               ***  Starting incremental Fock matrix formation  ***
  0  -1966.9193554705   0.000000000000 0.03662363  0.00089224  0.2174357 0.7000
  1  -1967.0250213554  -0.105665884907 0.02175007  0.00061950  0.0971650 0.7000
                               ***Turning on DIIS***
  2  -1967.0684365244  -0.043415168961 0.03055489  0.00106138  0.0321090 0.0000
  3  -1967.1345652314  -0.066128707015 0.02179115  0.00043766  0.0546553 0.0000
  4  -1967.1507785821  -0.016213350669 0.00437818  0.00014919  0.0076969 0.0000
  5  -1967.1515364460  -0.000757863967 0.00307529  0.00006273  0.0054084 0.0000
  6  -1967.1516057509  -0.000069304844 0.00110063  0.00003206  0.0012032 0.0000
  7  -1967.1516121382  -0.000006387307 0.00093202  0.00002136  0.0009989 0.0000
               *** Restarting incremental Fock matrix formation ***
                                   *** Resetting DIIS ***
  8  -1967.1516260228  -0.000013884640 0.00098381  0.00001218  0.0015304 0.0000
  9  -1967.1516200885   0.000005934341 0.00051988  0.00000570  0.0032412 0.0000
 10  -1967.1516276908  -0.000007602341 0.00014725  0.00000322  0.0006165 0.0000
 11  -1967.1516280689  -0.000000378064 0.00002951  0.00000061  0.0000666 0.0000
 12  -1967.1516280644   0.000000004531 0.00004560  0.00000076  0.0000388 0.0000
 13  -1967.1516280727  -0.000000008354 0.00003155  0.00000085  0.0000025 0.0000
                 **** Energy Check signals convergence ****

               *****************************************************
               *                     SUCCESS                       *
               *           SCF CONVERGED AFTER  14 CYCLES          *
               *****************************************************

Old exchange energy                            =    -22.316366731 Eh
New exchange energy                            =    -22.316360992 Eh
Exchange energy change after final integration =      0.000005739 Eh
Total energy after final integration           =  -1967.151622342 Eh
Final COS-X integration done in                =     2.932 sec

----------------
TOTAL SCF ENERGY
----------------

Total Energy       :        -1967.15162234 Eh          -53528.91700 eV

Components:
Nuclear Repulsion  :          575.01088089 Eh           15646.84154 eV
Electronic Energy  :        -2542.16250323 Eh          -69175.75854 eV
One Electron Energy:        -3855.61308212 Eh         -104916.56582 eV
Two Electron Energy:         1313.45057890 Eh           35740.80728 eV
Max COSX asymmetry :            0.00000120 Eh               0.00003 eV
CPCM Dielectric    :           -0.10185091 Eh              -2.77150 eV

Virial components:
Potential Energy   :        -3930.32628038 Eh         -106949.61530 eV
Kinetic Energy     :         1963.17465804 Eh           53420.69830 eV
Virial Ratio       :            2.00202578


DFT components:
N(Alpha)           :       42.999988523359 electrons
N(Beta)            :       42.999988523359 electrons
N(Total)           :       85.999977046717 electrons
E(X)               :      -88.911638181255 Eh       
E(C)               :       -3.855685917357 Eh       
E(XC)              :      -92.767324098612 Eh       
DFET-embed. en.    :        0.000000000000 Eh       
CPCM Solvation Model Properties:
Surface-charge          :           -1.03080892
Charge-correction       :            0.00387162 Eh               0.10535 eV
Free-energy (cav+disp)  :  This term is not implemented in the current solvation scheme

---------------
SCF CONVERGENCE
---------------

  Last Energy change         ...   -8.5188e-09  Tolerance :   1.0000e-08
  Last MAX-Density change    ...    0.0000e+00  Tolerance :   1.0000e-07
  Last RMS-Density change    ...    0.0000e+00  Tolerance :   5.0000e-09
  Last DIIS Error            ...    2.2056e-06  Tolerance :   5.0000e-07

             **** THE GBW FILE WAS UPDATED (orca.gbw) ****
             **** DENSITY orca.scfp WAS UPDATED ****
             **** ENERGY FILE WAS UPDATED (orca.en.tmp) ****
             **** THE GBW FILE WAS UPDATED (orca.gbw) ****
             **** DENSITY orca.scfp WAS UPDATED ****
----------------
ORBITAL ENERGIES
----------------

  NO   OCC          E(Eh)            E(eV) 
   0   2.0000    -323.030483     -8790.1063 
   1   2.0000     -38.819944     -1056.3444 
   2   2.0000     -34.024832      -925.8628 
   3   2.0000     -34.024684      -925.8587 
   4   2.0000     -34.024583      -925.8560 
   5   2.0000     -14.390305      -391.5801 
   6   2.0000     -10.239937      -278.6428 
   7   2.0000     -10.209681      -277.8195 
   8   2.0000     -10.196890      -277.4715 
   9   2.0000     -10.193436      -277.3775 
  10   2.0000     -10.192777      -277.3596 
  11   2.0000     -10.192012      -277.3387 
  12   2.0000     -10.190026      -277.2847 
  13   2.0000      -4.313269      -117.3700 
  14   2.0000      -2.809562       -76.4521 
  15   2.0000      -2.806847       -76.3782 
  16   2.0000      -2.806693       -76.3740 
  17   2.0000      -0.955442       -25.9989 
  18   2.0000      -0.879716       -23.9383 
  19   2.0000      -0.790111       -21.5000 
  20   2.0000      -0.768334       -20.9074 
  21   2.0000      -0.706000       -19.2112 
  22   2.0000      -0.630163       -17.1476 
  23   2.0000      -0.611054       -16.6276 
  24   2.0000      -0.562073       -15.2948 
  25   2.0000      -0.532600       -14.4928 
  26   2.0000      -0.501565       -13.6483 
  27   2.0000      -0.484930       -13.1956 
  28   2.0000      -0.476018       -12.9531 
  29   2.0000      -0.458330       -12.4718 
  30   2.0000      -0.440956       -11.9990 
  31   2.0000      -0.424508       -11.5515 
  32   2.0000      -0.397885       -10.8270 
  33   2.0000      -0.378587       -10.3019 
  34   2.0000      -0.365473        -9.9450 
  35   2.0000      -0.362675        -9.8689 
  36   2.0000      -0.301389        -8.2012 
  37   2.0000      -0.301016        -8.1911 
  38   2.0000      -0.300525        -8.1777 
  39   2.0000      -0.300295        -8.1714 
  40   2.0000      -0.279648        -7.6096 
  41   2.0000      -0.276352        -7.5199 
  42   2.0000      -0.269368        -7.3299 
  43   0.0000      -0.100157        -2.7254 
  44   0.0000      -0.036620        -0.9965 
  45   0.0000      -0.034052        -0.9266 
  46   0.0000       0.017124         0.4660 
  47   0.0000       0.022493         0.6121 
  48   0.0000       0.035607         0.9689 
  49   0.0000       0.048692         1.3250 
  50   0.0000       0.061121         1.6632 
  51   0.0000       0.077196         2.1006 
  52   0.0000       0.080713         2.1963 
  53   0.0000       0.091199         2.4817 
  54   0.0000       0.097710         2.6588 
  55   0.0000       0.101330         2.7573 
  56   0.0000       0.113799         3.0966 
  57   0.0000       0.127634         3.4731 
  58   0.0000       0.133050         3.6205 
  59   0.0000       0.136031         3.7016 
  60   0.0000       0.142190         3.8692 
  61   0.0000       0.151640         4.1263 
  62   0.0000       0.170563         4.6413 
  63   0.0000       0.179384         4.8813 
  64   0.0000       0.186188         5.0664 
  65   0.0000       0.192831         5.2472 
  66   0.0000       0.205584         5.5942 
  67   0.0000       0.209370         5.6972 
  68   0.0000       0.212804         5.7907 
  69   0.0000       0.217019         5.9054 
  70   0.0000       0.232737         6.3331 
  71   0.0000       0.238559         6.4915 
  72   0.0000       0.247531         6.7357 
  73   0.0000       0.260529         7.0894 
  74   0.0000       0.265620         7.2279 
  75   0.0000       0.268492         7.3060 
  76   0.0000       0.290267         7.8986 
  77   0.0000       0.308151         8.3852 
  78   0.0000       0.313841         8.5400 
  79   0.0000       0.319677         8.6989 
  80   0.0000       0.337382         9.1806 
  81   0.0000       0.343654         9.3513 
  82   0.0000       0.344664         9.3788 
  83   0.0000       0.354524         9.6471 
  84   0.0000       0.367198         9.9920 
  85   0.0000       0.374662        10.1951 
  86   0.0000       0.379204        10.3187 
  87   0.0000       0.390726        10.6322 
  88   0.0000       0.401813        10.9339 
  89   0.0000       0.412257        11.2181 
  90   0.0000       0.423565        11.5258 
  91   0.0000       0.434909        11.8345 
  92   0.0000       0.438797        11.9403 
  93   0.0000       0.452833        12.3222 
  94   0.0000       0.457305        12.4439 
  95   0.0000       0.464661        12.6441 
  96   0.0000       0.477985        13.0066 
  97   0.0000       0.483091        13.1456 
  98   0.0000       0.484250        13.1771 
  99   0.0000       0.494645        13.4600 
 100   0.0000       0.505483        13.7549 
 101   0.0000       0.522645        14.2219 
 102   0.0000       0.550454        14.9786 
 103   0.0000       0.552374        15.0309 
 104   0.0000       0.591064        16.0837 
 105   0.0000       0.603034        16.4094 
 106   0.0000       0.618616        16.8334 
 107   0.0000       0.636403        17.3174 
 108   0.0000       0.651986        17.7414 
 109   0.0000       0.656699        17.8697 
 110   0.0000       0.665212        18.1013 
 111   0.0000       0.679267        18.4838 
 112   0.0000       0.698972        19.0200 
 113   0.0000       0.727365        19.7926 
 114   0.0000       0.739246        20.1159 
 115   0.0000       0.746232        20.3060 
 116   0.0000       0.773094        21.0369 
 117   0.0000       0.799850        21.7650 
 118   0.0000       0.802096        21.8261 
 119   0.0000       0.817511        22.2456 
 120   0.0000       0.834606        22.7108 
 121   0.0000       0.857810        23.3422 
 122   0.0000       0.864114        23.5137 
 123   0.0000       0.882514        24.0144 
 124   0.0000       0.897763        24.4294 
 125   0.0000       0.901752        24.5379 
 126   0.0000       0.910983        24.7891 
 127   0.0000       0.951489        25.8913 
 128   0.0000       0.954492        25.9730 
 129   0.0000       0.979376        26.6502 
 130   0.0000       0.984105        26.7789 
 131   0.0000       0.998800        27.1787 
 132   0.0000       1.034822        28.1589 
 133   0.0000       1.039886        28.2967 
 134   0.0000       1.045654        28.4537 
 135   0.0000       1.083948        29.4957 
 136   0.0000       1.091307        29.6960 
 137   0.0000       1.118090        30.4248 
 138   0.0000       1.136402        30.9231 
 139   0.0000       1.182525        32.1781 
 140   0.0000       1.184885        32.2424 
 141   0.0000       1.195353        32.5272 
 142   0.0000       1.207946        32.8699 
 143   0.0000       1.220573        33.2135 
 144   0.0000       1.235450        33.6183 
 145   0.0000       1.243030        33.8246 
 146   0.0000       1.271651        34.6034 
 147   0.0000       1.273799        34.6618 
 148   0.0000       1.291202        35.1354 
 149   0.0000       1.317171        35.8420 
 150   0.0000       1.337341        36.3909 
 151   0.0000       1.366155        37.1750 
 152   0.0000       1.382096        37.6087 
 153   0.0000       1.396764        38.0079 
 154   0.0000       1.402820        38.1727 
 155   0.0000       1.445089        39.3229 
 156   0.0000       1.452846        39.5339 
 157   0.0000       1.457048        39.6483 
 158   0.0000       1.472148        40.0592 
 159   0.0000       1.499910        40.8146 
 160   0.0000       1.518888        41.3311 
 161   0.0000       1.528333        41.5881 
 162   0.0000       1.556499        42.3545 
 163   0.0000       1.582866        43.0720 
 164   0.0000       1.599808        43.5330 
 165   0.0000       1.611859        43.8609 
 166   0.0000       1.632197        44.4143 
 167   0.0000       1.638495        44.5857 
 168   0.0000       1.663916        45.2774 
 169   0.0000       1.671860        45.4936 
 170   0.0000       1.683747        45.8171 
 171   0.0000       1.706977        46.4492 
 172   0.0000       1.722316        46.8666 
 173   0.0000       1.739921        47.3457 
 174   0.0000       1.761237        47.9257 
 175   0.0000       1.789932        48.7065 
 176   0.0000       1.830419        49.8082 
 177   0.0000       1.856650        50.5220 
 178   0.0000       1.890520        51.4437 
 179   0.0000       1.908331        51.9283 
 180   0.0000       1.912842        52.0511 
 181   0.0000       1.936298        52.6894 
 182   0.0000       1.943977        52.8983 
 183   0.0000       1.963158        53.4202 
 184   0.0000       1.985729        54.0344 
 185   0.0000       2.023087        55.0510 
 186   0.0000       2.046853        55.6977 
 187   0.0000       2.059868        56.0519 
 188   0.0000       2.093756        56.9740 
 189   0.0000       2.110930        57.4413 
 190   0.0000       2.127766        57.8995 
 191   0.0000       2.131137        57.9912 
 192   0.0000       2.141064        58.2613 
 193   0.0000       2.156194        58.6730 
 194   0.0000       2.191639        59.6375 
 195   0.0000       2.200152        59.8692 
 196   0.0000       2.211427        60.1760 
 197   0.0000       2.234796        60.8119 
 198   0.0000       2.255868        61.3853 
 199   0.0000       2.278935        62.0130 
 200   0.0000       2.314314        62.9757 
 201   0.0000       2.323234        63.2184 
 202   0.0000       2.376500        64.6678 
 203   0.0000       2.393174        65.1216 
 204   0.0000       2.433320        66.2140 
 205   0.0000       2.465523        67.0903 
 206   0.0000       2.476848        67.3985 
 207   0.0000       2.492869        67.8344 
 208   0.0000       2.500370        68.0385 
 209   0.0000       2.518994        68.5453 
 210   0.0000       2.542416        69.1826 
 211   0.0000       2.555970        69.5515 
 212   0.0000       2.591341        70.5140 
 213   0.0000       2.600937        70.7751 
 214   0.0000       2.625127        71.4333 
 215   0.0000       2.628249        71.5183 
 216   0.0000       2.632935        71.6458 
 217   0.0000       2.652621        72.1815 
 218   0.0000       2.660814        72.4044 
 219   0.0000       2.666418        72.5569 
 220   0.0000       2.679066        72.9011 
 221   0.0000       2.696320        73.3706 
 222   0.0000       2.722910        74.0942 
 223   0.0000       2.741926        74.6116 
 224   0.0000       2.757612        75.0384 
 225   0.0000       2.762716        75.1773 
 226   0.0000       2.778308        75.6016 
 227   0.0000       2.798333        76.1465 
 228   0.0000       2.808562        76.4249 
 229   0.0000       2.824199        76.8504 
 230   0.0000       2.829099        76.9837 
 231   0.0000       2.837497        77.2122 
 232   0.0000       2.884824        78.5000 
 233   0.0000       2.897028        78.8321 
 234   0.0000       2.906083        79.0785 
 235   0.0000       2.936058        79.8942 
 236   0.0000       2.986371        81.2633 
 237   0.0000       3.004475        81.7559 
 238   0.0000       3.018965        82.1502 
 239   0.0000       3.043323        82.8130 
 240   0.0000       3.080807        83.8330 
 241   0.0000       3.091556        84.1255 
 242   0.0000       3.103738        84.4570 
 243   0.0000       3.113956        84.7350 
 244   0.0000       3.116212        84.7964 
 245   0.0000       3.130285        85.1794 
 246   0.0000       3.152207        85.7759 
 247   0.0000       3.156682        85.8977 
 248   0.0000       3.166975        86.1778 
 249   0.0000       3.180386        86.5427 
 250   0.0000       3.206631        87.2569 
 251   0.0000       3.219527        87.6078 
 252   0.0000       3.229895        87.8899 
 253   0.0000       3.258782        88.6760 
 254   0.0000       3.267221        88.9056 
 255   0.0000       3.276265        89.1517 
 256   0.0000       3.302867        89.8756 
 257   0.0000       3.312902        90.1486 
 258   0.0000       3.326740        90.5252 
 259   0.0000       3.340555        90.9011 
 260   0.0000       3.361427        91.4691 
 261   0.0000       3.365765        91.5871 
 262   0.0000       3.388724        92.2119 
 263   0.0000       3.417439        92.9932 
 264   0.0000       3.432426        93.4011 
 265   0.0000       3.456461        94.0551 
 266   0.0000       3.470178        94.4283 
 267   0.0000       3.484345        94.8138 
 268   0.0000       3.500259        95.2469 
 269   0.0000       3.522714        95.8579 
 270   0.0000       3.552884        96.6789 
 271   0.0000       3.565811        97.0307 
 272   0.0000       3.594949        97.8235 
 273   0.0000       3.641821        99.0990 
 274   0.0000       3.651742        99.3690 
 275   0.0000       3.662825        99.6705 
 276   0.0000       3.670578        99.8815 
 277   0.0000       3.693908       100.5164 
 278   0.0000       3.713116       101.0390 
 279   0.0000       3.726965       101.4159 
 280   0.0000       3.735982       101.6612 
 281   0.0000       3.753381       102.1347 
 282   0.0000       3.801669       103.4487 
 283   0.0000       3.810220       103.6814 
 284   0.0000       3.863345       105.1270 
 285   0.0000       3.871101       105.3380 
 286   0.0000       3.909395       106.3800 
 287   0.0000       3.931146       106.9719 
 288   0.0000       3.952253       107.5463 
 289   0.0000       3.998341       108.8004 
 290   0.0000       4.036933       109.8505 
 291   0.0000       4.054055       110.3164 
 292   0.0000       4.084219       111.1372 
 293   0.0000       4.121658       112.1560 
 294   0.0000       4.153148       113.0129 
 295   0.0000       4.188403       113.9722 
 296   0.0000       4.195018       114.1522 
 297   0.0000       4.212178       114.6192 
 298   0.0000       4.220183       114.8370 
 299   0.0000       4.234820       115.2353 
 300   0.0000       4.248412       115.6052 
 301   0.0000       4.254247       115.7639 
 302   0.0000       4.293595       116.8347 
 303   0.0000       4.303730       117.1104 
 304   0.0000       4.370094       118.9163 
 305   0.0000       4.439793       120.8129 
 306   0.0000       4.465212       121.5046 
 307   0.0000       4.537249       123.4648 
 308   0.0000       4.609574       125.4329 
 309   0.0000       4.656068       126.6980 
 310   0.0000       4.667222       127.0016 
 311   0.0000       4.681090       127.3789 
 312   0.0000       4.691445       127.6607 
 313   0.0000       4.742825       129.0588 
 314   0.0000       4.830345       131.4404 
 315   0.0000       4.853258       132.0639 
 316   0.0000       4.858132       132.1965 
 317   0.0000       4.887595       132.9982 
 318   0.0000       4.970527       135.2549 
 319   0.0000       5.001544       136.0989 
 320   0.0000       5.028593       136.8350 
 321   0.0000       5.082608       138.3048 
 322   0.0000       5.141693       139.9126 
 323   0.0000       5.190275       141.2346 
 324   0.0000       5.233511       142.4111 
 325   0.0000       5.300674       144.2387 
 326   0.0000       5.359627       145.8429 
 327   0.0000       5.399582       146.9301 
 328   0.0000       5.442328       148.0933 
 329   0.0000       5.497716       149.6005 
 330   0.0000       5.634339       153.3182 
 331   0.0000       5.732527       155.9900 
 332   0.0000       5.755526       156.6158 
 333   0.0000       5.755821       156.6239 
 334   0.0000       5.757816       156.6781 
 335   0.0000       5.763955       156.8452 
 336   0.0000       5.789299       157.5348 
 337   0.0000       5.796467       157.7299 
 338   0.0000       5.935989       161.5265 
 339   0.0000      21.933718       596.8468 
 340   0.0000      22.426174       610.2472 
 341   0.0000      22.563693       613.9893 
 342   0.0000      22.584906       614.5665 
 343   0.0000      22.691631       617.4707 
 344   0.0000      22.774939       619.7376 
 345   0.0000      23.184222       630.8748 
 346   0.0000      31.898359       867.9985 

                    ********************************
                    * MULLIKEN POPULATION ANALYSIS *
                    ********************************

-----------------------
MULLIKEN ATOMIC CHARGES
-----------------------
   0 C :   -0.118315
   1 C :   -0.229476
   2 C :    0.112919
   3 C :   -0.209457
   4 C :   -0.133153
   5 C :   -0.147278
   6 H :    0.142589
   7 H :    0.142832
   8 H :    0.135946
   9 H :    0.133846
  10 H :    0.141631
  11 C :   -0.017569
  12 N :   -0.470828
  13 H :    0.159067
  14 H :    0.138062
  15 H :    0.279192
  16 H :    0.273945
  17 Cu:    0.666047
Sum of atomic charges:    1.0000000

--------------------------------
MULLIKEN REDUCED ORBITAL CHARGES
--------------------------------
  0 C s       :     3.210684  s :     3.210684
      pz      :     0.945422  p :     2.819006
      px      :     0.954359
      py      :     0.919225
      dz2     :     0.013185  d :     0.081324
      dxz     :     0.015846
      dyz     :     0.012262
      dx2y2   :     0.022966
      dxy     :     0.017065
      f0      :     0.000786  f :     0.007301
      f+1     :     0.000384
      f-1     :     0.001414
      f+2     :     0.000898
      f-2     :     0.001417
      f+3     :     0.001565
      f-3     :     0.000838
  1 C s       :     3.269269  s :     3.269269
      pz      :     0.985029  p :     2.873614
      px      :     0.907592
      py      :     0.980993
      dz2     :     0.007173  d :     0.079196
      dxz     :     0.019349
      dyz     :     0.011565
      dx2y2   :     0.023547
      dxy     :     0.017562
      f0      :     0.000601  f :     0.007397
      f+1     :     0.001184
      f-1     :     0.000648
      f+2     :     0.001135
      f-2     :     0.001119
      f+3     :     0.001542
      f-3     :     0.001168
  2 C s       :     3.171319  s :     3.171319
      pz      :     0.899069  p :     2.583757
      px      :     0.841600
      py      :     0.843087
      dz2     :     0.022538  d :     0.122118
      dxz     :     0.028239
      dyz     :     0.011988
      dx2y2   :     0.030546
      dxy     :     0.028807
      f0      :     0.000653  f :     0.009887
      f+1     :     0.001431
      f-1     :     0.001448
      f+2     :     0.001177
      f-2     :     0.001662
      f+3     :     0.001869
      f-3     :     0.001648
  3 C s       :     3.248754  s :     3.248754
      pz      :     0.983141  p :     2.873015
      px      :     0.996224
      py      :     0.893649
      dz2     :     0.013584  d :     0.080350
      dxz     :     0.015652
      dyz     :     0.012409
      dx2y2   :     0.023944
      dxy     :     0.014761
      f0      :     0.000772  f :     0.007337
      f+1     :     0.000392
      f-1     :     0.001425
      f+2     :     0.000922
      f-2     :     0.001455
      f+3     :     0.001505
      f-3     :     0.000866
  4 C s       :     3.217232  s :     3.217232
      pz      :     0.958550  p :     2.826356
      px      :     0.905389
      py      :     0.962417
      dz2     :     0.008486  d :     0.082189
      dxz     :     0.020322
      dyz     :     0.010835
      dx2y2   :     0.023754
      dxy     :     0.018792
      f0      :     0.000578  f :     0.007376
      f+1     :     0.001245
      f-1     :     0.000674
      f+2     :     0.001100
      f-2     :     0.001181
      f+3     :     0.001514
      f-3     :     0.001085
  5 C s       :     3.225280  s :     3.225280
      pz      :     0.939747  p :     2.834968
      px      :     0.953743
      py      :     0.941478
      dz2     :     0.016704  d :     0.079811
      dxz     :     0.014989
      dyz     :     0.010028
      dx2y2   :     0.014414
      dxy     :     0.023676
      f0      :     0.000457  f :     0.007219
      f+1     :     0.001016
      f-1     :     0.001341
      f+2     :     0.000959
      f-2     :     0.001210
      f+3     :     0.000981
      f-3     :     0.001255
  6 H s       :     0.835173  s :     0.835173
      pz      :     0.005967  p :     0.022238
      px      :     0.011828
      py      :     0.004443
  7 H s       :     0.834912  s :     0.834912
      pz      :     0.004655  p :     0.022256
      px      :     0.010268
      py      :     0.007333
  8 H s       :     0.841767  s :     0.841767
      pz      :     0.007996  p :     0.022287
      px      :     0.003766
      py      :     0.010525
  9 H s       :     0.843620  s :     0.843620
      pz      :     0.006097  p :     0.022534
      px      :     0.011497
      py      :     0.004941
 10 H s       :     0.836103  s :     0.836103
      pz      :     0.008059  p :     0.022266
      px      :     0.003678
      py      :     0.010529
 11 C s       :     3.201484  s :     3.201484
      pz      :     0.912425  p :     2.706934
      px      :     0.793780
      py      :     1.000729
      dz2     :     0.027914  d :     0.100949
      dxz     :     0.023275
      dyz     :     0.012621
      dx2y2   :     0.023083
      dxy     :     0.014056
      f0      :     0.000750  f :     0.008202
      f+1     :     0.002090
      f-1     :     0.000483
      f+2     :     0.001151
      f-2     :     0.001354
      f+3     :     0.001368
      f-3     :     0.001007
 12 N s       :     3.499938  s :     3.499938
      pz      :     1.241513  p :     3.923844
      px      :     1.364842
      py      :     1.317488
      dz2     :     0.012033  d :     0.044497
      dxz     :     0.007965
      dyz     :     0.006157
      dx2y2   :     0.010065
      dxy     :     0.008276
      f0      :     0.000220  f :     0.002548
      f+1     :     0.000520
      f-1     :     0.000313
      f+2     :     0.000320
      f-2     :     0.000425
      f+3     :     0.000359
      f-3     :     0.000393
 13 H s       :     0.819300  s :     0.819300
      pz      :     0.004266  p :     0.021633
      px      :     0.004777
      py      :     0.012590
 14 H s       :     0.839881  s :     0.839881
      pz      :     0.011919  p :     0.022058
      px      :     0.004758
      py      :     0.005380
 15 H s       :     0.683990  s :     0.683990
      pz      :     0.007860  p :     0.036818
      px      :     0.009814
      py      :     0.019144
 16 H s       :     0.688101  s :     0.688101
      pz      :     0.018355  p :     0.037955
      px      :     0.009600
      py      :     0.010000
 17 Cus       :     6.334448  s :     6.334448
      pz      :     4.016159  p :    12.098873
      px      :     4.059104
      py      :     4.023609
      dz2     :     1.989900  d :     9.900545
      dxz     :     1.975036
      dyz     :     1.988884
      dx2y2   :     1.988974
      dxy     :     1.957752
      f0      :     0.000011  f :     0.000086
      f+1     :     0.000009
      f-1     :     0.000004
      f+2     :     0.000010
      f-2     :     0.000018
      f+3     :     0.000010
      f-3     :     0.000024


                     *******************************
                     * LOEWDIN POPULATION ANALYSIS *
                     *******************************

----------------------
LOEWDIN ATOMIC CHARGES
----------------------
   0 C :   -0.133487
   1 C :   -0.110415
   2 C :   -0.154347
   3 C :   -0.123280
   4 C :   -0.135630
   5 C :   -0.138522
   6 H :    0.151076
   7 H :    0.149988
   8 H :    0.153928
   9 H :    0.150849
  10 H :    0.150446
  11 C :   -0.210281
  12 N :   -0.021440
  13 H :    0.148595
  14 H :    0.154388
  15 H :    0.201255
  16 H :    0.194929
  17 Cu:    0.571948

-------------------------------
LOEWDIN REDUCED ORBITAL CHARGES
-------------------------------
  0 C s       :     2.765931  s :     2.765931
      pz      :     0.935358  p :     2.938300
      px      :     1.001550
      py      :     1.001391
      dz2     :     0.049628  d :     0.385780
      dxz     :     0.073433
      dyz     :     0.060864
      dx2y2   :     0.109701
      dxy     :     0.092154
      f0      :     0.005128  f :     0.043476
      f+1     :     0.003322
      f-1     :     0.005129
      f+2     :     0.004986
      f-2     :     0.008489
      f+3     :     0.010065
      f-3     :     0.006357
  1 C s       :     2.757271  s :     2.757271
      pz      :     0.924801  p :     2.927984
      px      :     1.038644
      py      :     0.964539
      dz2     :     0.033495  d :     0.382104
      dxz     :     0.080912
      dyz     :     0.054401
      dx2y2   :     0.119729
      dxy     :     0.093567
      f0      :     0.003712  f :     0.043056
      f+1     :     0.007480
      f-1     :     0.001573
      f+2     :     0.004625
      f-2     :     0.007469
      f+3     :     0.010350
      f-3     :     0.007846
  2 C s       :     2.711914  s :     2.711914
      pz      :     0.921541  p :     2.868878
      px      :     0.987916
      py      :     0.959421
      dz2     :     0.080994  d :     0.516330
      dxz     :     0.107272
      dyz     :     0.066068
      dx2y2   :     0.121577
      dxy     :     0.140419
      f0      :     0.005059  f :     0.057225
      f+1     :     0.007608
      f-1     :     0.005136
      f+2     :     0.007173
      f-2     :     0.010530
      f+3     :     0.012475
      f-3     :     0.009244
  3 C s       :     2.757340  s :     2.757340
      pz      :     0.948519  p :     2.941740
      px      :     0.999481
      py      :     0.993741
      dz2     :     0.049416  d :     0.381373
      dxz     :     0.073382
      dyz     :     0.059904
      dx2y2   :     0.109204
      dxy     :     0.089467
      f0      :     0.005119  f :     0.042826
      f+1     :     0.003362
      f-1     :     0.005019
      f+2     :     0.004933
      f-2     :     0.008388
      f+3     :     0.009699
      f-3     :     0.006306
  4 C s       :     2.766515  s :     2.766515
      pz      :     0.924175  p :     2.939854
      px      :     1.058963
      py      :     0.956716
      dz2     :     0.034388  d :     0.386018
      dxz     :     0.084583
      dyz     :     0.054320
      dx2y2   :     0.118450
      dxy     :     0.094276
      f0      :     0.003685  f :     0.043243
      f+1     :     0.007820
      f-1     :     0.001604
      f+2     :     0.004681
      f-2     :     0.007711
      f+3     :     0.010145
      f-3     :     0.007596
  5 C s       :     2.766579  s :     2.766579
      pz      :     0.949429  p :     2.945994
      px      :     1.013625
      py      :     0.982940
      dz2     :     0.065646  d :     0.382630
      dxz     :     0.069873
      dyz     :     0.051750
      dx2y2   :     0.075950
      dxy     :     0.119412
      f0      :     0.003882  f :     0.043319
      f+1     :     0.005424
      f-1     :     0.004859
      f+2     :     0.006475
      f-2     :     0.007618
      f+3     :     0.007687
      f-3     :     0.007374
  6 H s       :     0.789889  s :     0.789889
      pz      :     0.016228  p :     0.059034
      px      :     0.030021
      py      :     0.012785
  7 H s       :     0.790740  s :     0.790740
      pz      :     0.013226  p :     0.059272
      px      :     0.026494
      py      :     0.019552
  8 H s       :     0.786865  s :     0.786865
      pz      :     0.021287  p :     0.059207
      px      :     0.010921
      py      :     0.026999
  9 H s       :     0.789126  s :     0.789126
      pz      :     0.016853  p :     0.060025
      px      :     0.029370
      py      :     0.013802
 10 H s       :     0.790467  s :     0.790467
      pz      :     0.021110  p :     0.059087
      px      :     0.011024
      py      :     0.026952
 11 C s       :     2.776901  s :     2.776901
      pz      :     0.971627  p :     2.950512
      px      :     0.930314
      py      :     1.048571
      dz2     :     0.097852  d :     0.432957
      dxz     :     0.109350
      dyz     :     0.046374
      dx2y2   :     0.101145
      dxy     :     0.078236
      f0      :     0.004823  f :     0.049911
      f+1     :     0.010529
      f-1     :     0.004643
      f+2     :     0.007162
      f-2     :     0.008511
      f+3     :     0.008216
      f-3     :     0.006027
 12 N s       :     3.025634  s :     3.025634
      pz      :     1.222163  p :     3.832534
      px      :     1.344894
      py      :     1.265477
      dz2     :     0.039247  d :     0.152442
      dxz     :     0.031857
      dyz     :     0.023851
      dx2y2   :     0.031456
      dxy     :     0.026030
      f0      :     0.001174  f :     0.010830
      f+1     :     0.002365
      f-1     :     0.001405
      f+2     :     0.001210
      f-2     :     0.001606
      f+3     :     0.001389
      f-3     :     0.001681
 13 H s       :     0.791256  s :     0.791256
      pz      :     0.012490  p :     0.060149
      px      :     0.013664
      py      :     0.033995
 14 H s       :     0.785771  s :     0.785771
      pz      :     0.030578  p :     0.059842
      px      :     0.012958
      py      :     0.016306
 15 H s       :     0.692656  s :     0.692656
      pz      :     0.021432  p :     0.106089
      px      :     0.027873
      py      :     0.056785
 16 H s       :     0.697628  s :     0.697628
      pz      :     0.051707  p :     0.107443
      px      :     0.026546
      py      :     0.029190
 17 Cus       :     6.292793  s :     6.292793
      pz      :     4.025288  p :    12.112858
      px      :     4.058025
      py      :     4.029544
      dz2     :     2.003437  d :    10.022283
      dxz     :     2.009377
      dyz     :     2.001933
      dx2y2   :     2.014092
      dxy     :     1.993445
      f0      :     0.000016  f :     0.000118
      f+1     :     0.000013
      f-1     :     0.000005
      f+2     :     0.000014
      f-2     :     0.000025
      f+3     :     0.000013
      f-3     :     0.000032


                      *****************************
                      * MAYER POPULATION ANALYSIS *
                      *****************************

  NA   - Mulliken gross atomic population
  ZA   - Total nuclear charge
  QA   - Mulliken gross atomic charge
  VA   - Mayer's total valence
  BVA  - Mayer's bonded valence
  FA   - Mayer's free valence

  ATOM       NA         ZA         QA         VA         BVA        FA
  0 C      6.1183     6.0000    -0.1183     3.8786     3.8786    -0.0000
  1 C      6.2295     6.0000    -0.2295     3.9576     3.9576    -0.0000
  2 C      5.8871     6.0000     0.1129     3.6906     3.6906    -0.0000
  3 C      6.2095     6.0000    -0.2095     3.8723     3.8723     0.0000
  4 C      6.1332     6.0000    -0.1332     3.9153     3.9153    -0.0000
  5 C      6.1473     6.0000    -0.1473     3.8972     3.8972    -0.0000
  6 H      0.8574     1.0000     0.1426     0.9644     0.9644     0.0000
  7 H      0.8572     1.0000     0.1428     0.9646     0.9646    -0.0000
  8 H      0.8641     1.0000     0.1359     0.9713     0.9713    -0.0000
  9 H      0.8662     1.0000     0.1338     0.9823     0.9823     0.0000
 10 H      0.8584     1.0000     0.1416     0.9659     0.9659    -0.0000
 11 C      6.0176     6.0000    -0.0176     3.6668     3.6668    -0.0000
 12 N      7.4708     7.0000    -0.4708     3.2875     3.2875    -0.0000
 13 H      0.8409     1.0000     0.1591     0.9570     0.9570    -0.0000
 14 H      0.8619     1.0000     0.1381     0.9594     0.9594    -0.0000
 15 H      0.7208     1.0000     0.2792     0.9258     0.9258    -0.0000
 16 H      0.7261     1.0000     0.2739     0.9320     0.9320    -0.0000
 17 Cu    28.3340    29.0000     0.6660     0.6760     0.6760    -0.0000

  Mayer bond orders larger than 0.100000
B(  0-C ,  1-C ) :   1.4278 B(  0-C ,  5-C ) :   1.3819 B(  0-C ,  6-H ) :   0.9738 
B(  1-C ,  2-C ) :   1.3697 B(  1-C ,  8-H ) :   0.9758 B(  2-C ,  3-C ) :   1.3420 
B(  2-C , 11-C ) :   0.9454 B(  3-C ,  4-C ) :   1.4226 B(  3-C ,  9-H ) :   0.9585 
B(  4-C ,  5-C ) :   1.4075 B(  4-C , 10-H ) :   0.9703 B(  5-C ,  7-H ) :   0.9693 
B( 11-C , 12-N ) :   0.7935 B( 11-C , 13-H ) :   0.9745 B( 11-C , 14-H ) :   0.9623 
B( 12-N , 15-H ) :   0.9101 B( 12-N , 16-H ) :   0.9027 B( 12-N , 17-Cu) :   0.6538 


-------
TIMINGS
-------

Total SCF time: 0 days 0 hours 7 min 7 sec 

Total time                  ....     427.016 sec
Sum of individual times     ....     362.045 sec  ( 84.8%)

Fock matrix formation       ....     157.881 sec  ( 37.0%)
  Split-RI-J                ....      50.576 sec  ( 32.0% of F)
  Chain of spheres X        ....      22.368 sec  ( 14.2% of F)
  XC integration            ....      13.245 sec  (  8.4% of F)
    Basis function eval.    ....       0.651 sec  (  4.9% of XC)
    Density eval.           ....       0.520 sec  (  3.9% of XC)
    XC-Functional eval.     ....       0.108 sec  (  0.8% of XC)
    XC-Potential eval.      ....       0.584 sec  (  4.4% of XC)
Diagonalization             ....      61.515 sec  ( 14.4%)
Density matrix formation    ....       2.281 sec  (  0.5%)
Population analysis         ....       4.262 sec  (  1.0%)
Initial guess               ....       6.549 sec  (  1.5%)
Orbital Transformation      ....       0.000 sec  (  0.0%)
Orbital Orthonormalization  ....       0.000 sec  (  0.0%)
DIIS solution               ....     114.573 sec  ( 26.8%)
Grid generation             ....      14.983 sec  (  3.5%)

Maximum memory used throughout the entire SCF-calculation: 82.9 MB


-------------------------------------------------------------------------------
                          DFT DISPERSION CORRECTION                            
                                                                               
                              DFTD3 V3.1  Rev 1                                
                          USING Becke-Johnson damping                          
-------------------------------------------------------------------------------
The B3LYP functional is recognized
Active option DFTDOPT                   ...         4   

molecular C6(AA) [au] = 4488.271946 


            DFT-D V3
 parameters
 s6 scaling factor         :     1.0000 
 a1 scaling factor         :     0.3981 
 s8 scaling factor         :     1.9889 
 a2 scaling factor         :     4.4211 
 ad hoc parameters k1-k3   :    16.0000     1.3333    -4.0000 

 Edisp/kcal,au: -21.458551219295  -0.034196374425 
 E6   /kcal   :  -9.788845066 
 E8   /kcal   : -11.669706153 
 % E8         :  54.382544442 

-------------------------   ----------------
Dispersion correction           -0.034196374
-------------------------   ----------------


-------------------------   --------------------
FINAL SINGLE POINT ENERGY     -1967.185818716235
[...]
Rotationally invariant grid construction     ... off

Total number of grid points                  ...    23683
Total number of batches                      ...      379
Average number of points per batch           ...       62
Average number of grid points per atom       ...     1316
UseSFitting                                  ... on

GRIDX 3
-------
General Integration Accuracy     IntAcc      ... 4.338
Radial Grid Type                 RadialGrid  ... OptM3 with GC (2021)
Angular Grid (max. ang.)         AngularGrid ... 3 (Lebedev-194)
Angular grid pruning method      GridPruning ... 4 (adaptive)
Weight generation scheme         WeightScheme... Becke
Basis function cutoff            BFCut       ... 1.0000e-11
Integration weight cutoff        WCut        ... 1.0000e-14
Angular grids for H and He will be reduced by one unit
Partially contracted basis set               ... on
Rotationally invariant grid construction     ... off

Total number of grid points                  ...    52018
Total number of batches                      ...      822
Average number of points per batch           ...       63
Average number of grid points per atom       ...     2890
UseSFitting                                  ... on

Time for X-Grid setup             =    8.818 sec


--------------------
CPCM SOLVATION MODEL
--------------------
CPCM parameters:
  Epsilon                                         ...       6.0200
  Refrac                                          ...       1.3723
  Rsolv                                           ...       1.3000
  Surface type                                    ... GAUSSIAN VDW
  Epsilon function type                           ...         CPCM
Radii:
 Radius for C  used is    3.8550 Bohr (=   2.0400 Ang.)
 Radius for H  used is    2.4944 Bohr (=   1.3200 Ang.)
 Radius for N  used is    3.5149 Bohr (=   1.8600 Ang.)
 Radius for Cu used is    3.1747 Bohr (=   1.6800 Ang.)
Calculating surface                               ...        done! (  0.0s)
GEPOL surface points                              ...         1033
GEPOL Volume                                      ...    1073.3278
GEPOL Surface-area                                ...     605.7224
Calculating surface distance matrix               ...        done! (  0.0s)
Performing Cholesky decomposition & store         ...        done! (  5.7s)
Overall time for CPCM initialization              ...                 5.7s
--------------
SCF ITERATIONS
--------------
ITER       Energy         Delta-E        Max-DP      RMS-DP      [F,P]     Damp
               ***  Starting incremental Fock matrix formation  ***
  0  -1967.1558897406   0.000000000000 0.02350861  0.00024932  0.0409166 0.7000
  1  -1967.1565123464  -0.000622605754 0.02219756  0.00022078  0.0286534 0.7000
                               ***Turning on DIIS***
  2  -1967.1570050950  -0.000492748630 0.05720430  0.00055460  0.0200584 0.0000
  3  -1967.1582667533  -0.001261658286 0.00406507  0.00005276  0.0012418 0.0000
  4  -1967.1583003918  -0.000033638498 0.00280060  0.00004394  0.0006824 0.0000
               *** Restarting incremental Fock matrix formation ***
                                   *** Resetting DIIS ***
  5  -1967.1583168120  -0.000016420195 0.00126308  0.00001378  0.0003415 0.0000
  6  -1967.1583169832  -0.000000171275 0.00025457  0.00000504  0.0005431 0.0000
  7  -1967.1583190061  -0.000002022821 0.00033786  0.00000313  0.0001136 0.0000
  8  -1967.1583190602  -0.000000054106 0.00011994  0.00000158  0.0002068 0.0000
  9  -1967.1583191156  -0.000000055397 0.00010594  0.00000140  0.0000924 0.0000
 10  -1967.1583191197  -0.000000004107 0.00029402  0.00000375  0.0000205 0.0000
 11  -1967.1583191216  -0.000000001915 0.00010612  0.00000161  0.0000066 0.0000
 12  -1967.1583191202   0.000000001354 0.00006095  0.00000099  0.0000017 0.0000
 13  -1967.1583191214  -0.000000001119 0.00014479  0.00000174  0.0000011 0.0000
                            ***DIIS convergence achieved***

               *****************************************************
               *                     SUCCESS                       *
               *           SCF CONVERGED AFTER  14 CYCLES          *
               *****************************************************

Old exchange energy                            =    -22.317487794 Eh
New exchange energy                            =    -22.317461183 Eh
Exchange energy change after final integration =      0.000026611 Eh
Total energy after final integration           =  -1967.158292513 Eh
Final COS-X integration done in                =     3.094 sec
Total Energy       :        -1967.15829251 Eh          -53529.09851 eV
  Last Energy change         ...   -3.2169e-09  Tolerance :   1.0000e-08
  Last MAX-Density change    ...    0.0000e+00  Tolerance :   1.0000e-07
             **** THE GBW FILE WAS UPDATED (orca.gbw) ****
             **** DENSITY orca.scfp WAS UPDATED ****
             **** ENERGY FILE WAS UPDATED (orca.en.tmp) ****
             **** THE GBW FILE WAS UPDATED (orca.gbw) ****
             **** DENSITY orca.scfp WAS UPDATED ****
Total SCF time: 0 days 0 hours 6 min 3 sec 

Maximum memory used throughout the entire SCF-calculation: 83.2 MB


-------------------------------------------------------------------------------
                          DFT DISPERSION CORRECTION                            
                                                                               
                              DFTD3 V3.1  Rev 1                                
                          USING Becke-Johnson damping                          
-------------------------------------------------------------------------------
-------------------------   ----------------
Dispersion correction           -0.037752401
-------------------------   ----------------


-------------------------   --------------------
FINAL SINGLE POINT ENERGY     -1967.196044914105
-------------------------   --------------------



           ************************************************************
           *        Program running with 32 parallel MPI-processes    *
           *              working on a common directory               *
           ************************************************************
------------------------------------------------------------------------------
                         ORCA SCF GRADIENT CALCULATION
------------------------------------------------------------------------------

 ... reading COSX grid (gridx3)
Gradient of the Kohn-Sham DFT energy:
Kohn-Sham wavefunction type      ... RKS
Hartree-Fock exchange scaling    ...    0.200
Number of operators              ...    1
Number of atoms                  ...   18
Basis set dimensions             ...  347
Integral neglect threshold       ... 2.5e-11
Integral primitive cutoff        ... 2.5e-12
SHARK Integral package           ... ON

Nuc. rep. gradient       (SHARK) ... done (  0.1 sec)
HCore & Overlap gradient (SHARK) ... done (  2.1 sec)
RI-J gradient            (SHARK) ... done (  2.4 sec)
COSX-gradient                    ... done (  3.9 sec)
Exchange-correlation gradient    ... done
Dispersion correction            ... done

------------------
CARTESIAN GRADIENT
------------------

   1   C   :    0.000558313    0.001733303   -0.000723041
   2   C   :    0.000155530   -0.000502110    0.001059949
   3   C   :   -0.000000008   -0.000036599   -0.000205326
   4   C   :    0.000242113   -0.000212805   -0.000170113
   5   C   :   -0.000028652    0.000683105   -0.000094921
   6   C   :    0.000465335   -0.000897758    0.000388350
   7   H   :   -0.000299883   -0.000713455    0.000427628
   8   H   :   -0.000222546    0.000196332   -0.000164551
   9   H   :    0.000020786    0.000016277   -0.000132089
  10   H   :    0.000213979    0.000560965    0.000449118
  11   H   :   -0.000095386   -0.000076376   -0.000077796
  12   C   :   -0.000252145   -0.000017148    0.001089367
  13   N   :   -0.001362327   -0.002453312    0.001152315
  14   H   :   -0.000202000   -0.000445285   -0.000719215
  15   H   :    0.000557198    0.000359480    0.000437622
  16   H   :    0.000068988   -0.000096918   -0.000104028
  17   H   :    0.000464145    0.000048139    0.000593203
  18   Cu  :   -0.000195221    0.001858639   -0.003203424

Difference to translation invariance:
           :    0.0000882200    0.0000044744    0.0000030480

Difference to rotation invariance:
           :    0.0004452628    0.0006501609    0.0001436428

Norm of the cartesian gradient     ...    0.0058951572
RMS gradient                       ...    0.0008022293
MAX gradient                       ...    0.0032034241

-------
TIMINGS
-------

Total SCF gradient time            ...       14.678 sec

One electron gradient       ....       2.086 sec  ( 14.2%)
RI-J Coulomb gradient       ....       2.384 sec  ( 16.2%)
COSX gradient               ....       3.947 sec  ( 26.9%)
XC gradient                 ....       1.583 sec  ( 10.8%)
CPCM gradient               ....       0.425 sec  (  2.9%)
   A-Matrix (El+Nuc)        ....       0.139 sec  (  0.9%)
   Potential                ....       0.286 sec  (  1.9%)

Maximum memory used throughout the entire SCFGRAD-calculation: 55.1 MB
------------------------------------------------------------------------------
                         ORCA GEOMETRY RELAXATION STEP
------------------------------------------------------------------------------

Reading the OPT-File                    .... done
Getting information on internals        .... done
Copying old internal coords+grads       .... done
Making the new internal coordinates     .... (new redundants).... done
Validating the new internal coordinates .... (new redundants).... done
Calculating the B-matrix                .... done
Calculating the G,G- and P matrices     .... done
Transforming gradient to internals      .... done
Projecting the internal gradient        .... done
Number of atoms                         ....  18
Number of internal coordinates          ....  87
Current Energy                          .... -1967.196044914 Eh
Current gradient norm                   ....     0.005895157 Eh/bohr
Maximum allowed component of the step   ....  0.300
Current trust radius                    ....  0.300
Updating the Hessian (BFGS)             .... done
Forming the augmented Hessian           .... done
Diagonalizing the augmented Hessian     .... done
Last element of RFO vector              ....  0.990125405
Lowest eigenvalues of augmented Hessian:
 -0.000284600  0.003848144  0.012495621  0.022075460  0.025260009
Length of the computed step             ....  0.141582525
The final length of the internal step   ....  0.141582525
Converting the step to cartesian space:
 Initial RMS(Int)=    0.0151792400
Transforming coordinates:
 Iter   0:  RMS(Cart)=    0.0375435982 RMS(Int)=    0.0151516957
 Iter   1:  RMS(Cart)=    0.0009401360 RMS(Int)=    0.0007492134
 Iter   2:  RMS(Cart)=    0.0000539145 RMS(Int)=    0.0000217336
 Iter   3:  RMS(Cart)=    0.0000029775 RMS(Int)=    0.0000024199
 Iter   4:  RMS(Cart)=    0.0000001737 RMS(Int)=    0.0000000680
 Iter   5:  RMS(Cart)=    0.0000000098 RMS(Int)=    0.0000000080
done
Storing new coordinates                 .... done

                                .--------------------.
          ----------------------|Geometry convergence|-------------------------
          Item                value                   Tolerance       Converged
          ---------------------------------------------------------------------
          Energy change       0.0000945440            0.0000010000      NO
          RMS gradient        0.0008537856            0.0000300000      NO
          MAX gradient        0.0038148007            0.0001000000      NO
          RMS step            0.0151792400            0.0006000000      NO
          MAX step            0.0489999449            0.0010000000      NO
          ........................................................
          Max(Bonds)      0.0025      Max(Angles)    1.79
          Max(Dihed)        2.81      Max(Improp)    0.00
          ---------------------------------------------------------------------

The optimization has not yet converged - more geometry cycles are needed


    ---------------------------------------------------------------------------
                         Redundant Internal Coordinates
                            (Angstroem and degrees)

        Definition                    Value    dE/dq     Step     New-Value
    ----------------------------------------------------------------------------
     1. B(C   1,C   0)                1.3917 -0.000555  0.0004    1.3921   
     2. B(C   2,C   1)                1.3917 -0.000286  0.0001    1.3918   
     3. B(C   3,C   2)                1.4058 -0.000514 -0.0014    1.4044   
     4. B(C   4,C   3)                1.3939 -0.000290 -0.0006    1.3933   
     5. B(C   5,C   4)                1.3912 -0.000319  0.0003    1.3915   
     6. B(C   5,C   0)                1.3918  0.000448 -0.0004    1.3914   
     7. B(H   6,C   0)                1.0825  0.000016 -0.0000    1.0825   
     8. B(H   7,C   5)                1.0822  0.000011  0.0000    1.0822   
     9. B(H   8,C   1)                1.0834  0.000057 -0.0000    1.0834   
    10. B(H   9,C   3)                1.0867 -0.000101  0.0001    1.0869   
    11. B(H  10,C   4)                1.0824  0.000031 -0.0000    1.0824   
    12. B(C  11,C   2)                1.5068 -0.000962 -0.0005    1.5063   
    13. B(N  12,C  11)                1.4959 -0.001981  0.0010    1.4970   
    14. B(H  13,C  11)                1.0905  0.000141 -0.0001    1.0904   
    15. B(H  14,C  11)                1.0890 -0.000036  0.0001    1.0891   
    16. B(H  15,N  12)                1.0160  0.000063  0.0002    1.0162   
    17. B(H  16,N  12)                1.0170  0.000026  0.0003    1.0172   
    18. B(Cu 17,N  12)                1.9921 -0.003452 -0.0025    1.9897   
    19. A(C   5,C   0,H   6)          119.50 -0.000802    0.25    119.76   
    20. A(C   1,C   0,H   6)          120.16  0.000979   -0.23    119.93   
    21. A(C   1,C   0,C   5)          120.33 -0.000177   -0.02    120.31   
    22. A(C   0,C   1,H   8)          120.12  0.000117   -0.05    120.07   
    23. A(C   0,C   1,C   2)          120.37 -0.000116    0.02    120.39   
    24. A(C   2,C   1,H   8)          119.51 -0.000001    0.03    119.54   
    25. A(C   1,C   2,C   3)          119.12  0.000438   -0.04    119.08   
    26. A(C   1,C   2,C  11)          121.45  0.000599   -0.08    121.36   
    27. A(C   3,C   2,C  11)          119.10 -0.001077    0.17    119.27   
    28. A(C   2,C   3,C   4)          120.38 -0.000217    0.06    120.44   
    29. A(C   2,C   3,H   9)          119.55 -0.000255    0.09    119.64   
    30. A(C   4,C   3,H   9)          119.97  0.000484   -0.15    119.83   
    31. A(C   3,C   4,H  10)          119.84  0.000079   -0.01    119.83   
    32. A(C   3,C   4,C   5)          119.89  0.000030    0.00    119.89   
    33. A(C   5,C   4,H  10)          120.26 -0.000109    0.01    120.27   
    34. A(C   0,C   5,C   4)          119.90  0.000044   -0.03    119.87   
    35. A(C   4,C   5,H   7)          120.20  0.000316   -0.06    120.14   
    36. A(C   0,C   5,H   7)          119.89 -0.000360    0.09    119.98   
    37. A(H  13,C  11,H  14)          108.49 -0.000542    0.05    108.55   
    38. A(N  12,C  11,H  14)          106.80 -0.000085    0.14    106.94   
    39. A(C   2,C  11,H  14)          110.61  0.001173   -0.02    110.59   
    40. A(N  12,C  11,H  13)          111.21  0.001947   -0.46    110.75   
    41. A(C   2,C  11,H  13)          111.33  0.000804   -0.04    111.30   
    42. A(C   2,C  11,N  12)          108.31 -0.003291    0.33    108.63   
    43. A(H  16,N  12,Cu 17)          108.33  0.000758   -0.54    107.79   
    44. A(H  15,N  12,Cu 17)          116.78  0.001534   -0.70    116.08   
    45. A(C  11,N  12,Cu 17)          104.00 -0.003815    1.79    105.80   
    46. A(H  15,N  12,H  16)          106.46 -0.000296   -0.02    106.44   
    47. A(C  11,N  12,H  16)          110.53  0.001586   -0.47    110.06   
    48. A(C  11,N  12,H  15)          110.71  0.000359   -0.13    110.58   
    49. D(H   8,C   1,C   0,H   6)      0.26 -0.000020    0.06      0.32   
    50. D(C   2,C   1,C   0,H   6)    179.98  0.000045   -0.01    179.97   
    51. D(C   2,C   1,C   0,C   5)      0.40  0.000058   -0.05      0.35   
    52. D(H   8,C   1,C   0,C   5)   -179.32 -0.000008    0.02   -179.30   
    53. D(C   3,C   2,C   1,C   0)      0.30 -0.000207    0.20      0.50   
    54. D(C  11,C   2,C   1,H   8)      6.64  0.000336   -0.65      5.98   
    55. D(C   3,C   2,C   1,H   8)   -179.97 -0.000142    0.13   -179.84   
    56. D(C  11,C   2,C   1,C   0)   -173.09  0.000271   -0.59   -173.67   
    57. D(H   9,C   3,C   2,C  11)    -10.59  0.000108    0.54    -10.04   
    58. D(H   9,C   3,C   2,C   1)    175.87  0.000465   -0.22    175.64   
    59. D(C   4,C   3,C   2,C  11)    172.89 -0.000142    0.53    173.43   
    60. D(C   4,C   3,C   2,C   1)     -0.65  0.000215   -0.23     -0.89   
    61. D(C   5,C   4,C   3,H   9)   -176.21 -0.000301    0.10   -176.11   
    62. D(H  10,C   4,C   3,C   2)    178.99 -0.000061    0.17    179.16   
    63. D(C   5,C   4,C   3,C   2)      0.29 -0.000076    0.11      0.41   
    64. D(H  10,C   4,C   3,H   9)      2.49 -0.000286    0.15      2.64   
    65. D(H   7,C   5,C   4,H  10)      0.96 -0.000065    0.01      0.97   
    66. D(C   0,C   5,C   4,H  10)   -178.27 -0.000096   -0.02   -178.29   
    67. D(C   0,C   5,C   4,C   3)      0.42 -0.000078    0.04      0.46   
    68. D(H   7,C   5,C   0,H   6)      0.42  0.000057   -0.14      0.28   
    69. D(C   4,C   5,C   0,H   6)    179.65  0.000092   -0.11    179.54   
    70. D(H   7,C   5,C   4,C   3)    179.65 -0.000048    0.07    179.72   
    71. D(C   4,C   5,C   0,C   1)     -0.77  0.000087   -0.07     -0.84   
    72. D(H   7,C   5,C   0,C   1)    180.00  0.000052   -0.10    179.90   
    73. D(H  14,C  11,C   2,C   3)     38.38 -0.000442    0.44     38.82   
    74. D(H  14,C  11,C   2,C   1)   -148.23 -0.000821    1.22   -147.00   
    75. D(H  13,C  11,C   2,C   3)    159.09  0.000207    0.47    159.56   
    76. D(H  13,C  11,C   2,C   1)    -27.52 -0.000173    1.25    -26.26   
    77. D(N  12,C  11,C   2,C   3)    -78.34  0.000938    0.08    -78.26   
    78. D(N  12,C  11,C   2,C   1)     95.05  0.000559    0.87     95.92   
    79. D(H  15,N  12,C  11,C   2)    155.05 -0.000700    2.81    157.86   
    80. D(Cu 17,N  12,C  11,H  13)    151.48 -0.000255    2.40    153.89   
    81. D(Cu 17,N  12,C  11,C   2)     28.84 -0.000296    2.53     31.37   
    82. D(H  16,N  12,C  11,H  14)    153.61  0.000555    2.18    155.79   
    83. D(H  16,N  12,C  11,H  13)     35.41  0.000187    2.29     37.70   
    84. D(H  16,N  12,C  11,C   2)    -87.23  0.000147    2.42    -84.81   
    85. D(H  15,N  12,C  11,H  14)     35.89 -0.000291    2.57     38.47   
    86. D(Cu 17,N  12,C  11,H  14)    -90.32  0.000113    2.30    -88.02   
    87. D(H  15,N  12,C  11,H  13)    -82.31 -0.000659    2.68    -79.63   
    ----------------------------------------------------------------------------




    ----------------------------------------------------------------------------
                                   ERROR !!!
       The optimization did not converge but reached the maximum 
       number of optimization cycles.
       As a subsequent Frequencies calculation has been requested
       ORCA will abort at this point of the run.
       Please restart the calculation with the lowest energy geometry and/or
       a larger maxiter for the geometry optimization.
    ----------------------------------------------------------------------------


[file orca_main/run.cpp, line 12327]: ORCA finished with error return - aborting the run
