18
Properties=species:S:1:pos:R:3 energy=-1967.185818733039 pbc="F F F"
C       -3.07069000       1.83825800       1.69009900
C       -1.96125500       2.62668200       1.42031200
C       -0.71250500       2.31601000       1.96186700
C       -0.60021300       1.20740200       2.79945300
C       -1.71675100       0.42299000       3.08298400
C       -2.95118100       0.73005000       2.52391700
H       -4.02736200       2.09039900       1.25052400
H       -3.81446200       0.11222000       2.73418900
H       -2.05751200       3.49237300       0.77534100
H        0.35270900       0.92875900       3.23377000
H       -1.61675300      -0.43523200       3.73551200
C        0.45750800       3.16489600       1.53708200
N        1.61788000       3.15832400       2.48479500
H        0.12811100       4.19361000       1.39707600
H        0.81120900       2.81030300       0.56834700
H        1.89063700       4.11690200       2.68519900
H        1.34165900       2.76682900       3.38193500
Cu       3.17816200       2.21502400       1.79479500
18
Properties=species:S:1:pos:R:3 energy=-1967.185763367919 pbc="F F F"
C       -3.07027100       1.83853500       1.68964100
C       -1.96080900       2.62695500       1.42082800
C       -0.71258800       2.31606200       1.96329900
C       -0.60039800       1.20736200       2.80073200
C       -1.71697100       0.42293500       3.08332400
C       -2.95112300       0.73017000       2.52343800
H       -4.02649500       2.09045800       1.24935700
H       -3.81474300       0.11206900       2.73304900
H       -2.05625400       3.49244900       0.77577700
H        0.35222300       0.92859100       3.23526600
H       -1.61753400      -0.43557900       3.73547800
C        0.45799700       3.16438200       1.53814500
N        1.61787000       3.15927700       2.48597000
H        0.12873400       4.19289900       1.39537800
H        0.81175100       2.80748600       0.57002300
H        1.88922200       4.11793100       2.68733300
H        1.34287200       2.76616200       3.38264200
Cu       3.17578200       2.21740000       1.78828900
18
Properties=species:S:1:pos:R:3 energy=-1967.185705564357 pbc="F F F"
C       -3.06983900       1.83856100       1.68936400
C       -1.96014100       2.62712000       1.42143800
C       -0.71230400       2.31637400       1.96462700
C       -0.60061700       1.20740600       2.80189100
C       -1.71750200       0.42283200       3.08358200
C       -2.95121100       0.73014300       2.52303600
H       -4.02574100       2.09057500       1.24813100
H       -3.81473500       0.11214200       2.73188600
H       -2.05496100       3.49267500       0.77606900
H        0.35194200       0.92837000       3.23676500
H       -1.61826000      -0.43598700       3.73546300
C        0.45805300       3.16383700       1.53886900
N        1.61797600       3.16016800       2.48712700
H        0.12941900       4.19202800       1.39368500
H        0.81229200       2.80472200       0.57194000
H        1.88786100       4.11913500       2.68950000
H        1.34396000       2.76555100       3.38357500
Cu       3.17312200       2.21960400       1.78172100
18
Properties=species:S:1:pos:R:3 energy=-1967.185652139942 pbc="F F F"
C       -3.06967500       1.83850500       1.68912400
C       -1.95952300       2.62760200       1.42171900
C       -0.71237700       2.31622900       1.96596000
C       -0.60056600       1.20758200       2.80280700
C       -1.71784400       0.42257200       3.08394200
C       -2.95096100       0.73049200       2.52251900
H       -4.02493300       2.09066000       1.24714400
H       -3.81501700       0.11200800       2.73098800
H       -2.05382400       3.49264400       0.77645400
H        0.35157700       0.92817600       3.23796600
H       -1.61887100      -0.43624100       3.73536100
C        0.45847300       3.16345000       1.53977000
N        1.61790100       3.16101400       2.48823800
H        0.12994600       4.19140100       1.39216400
H        0.81282000       2.80228800       0.57342900
H        1.88666300       4.12008200       2.69132200
H        1.34487900       2.76515500       3.38428300
Cu       3.17067600       2.22137300       1.77603000
18
Properties=species:S:1:pos:R:3 energy=-1967.185616999239 pbc="F F F"
C       -3.06938900       1.83898100       1.68866900
C       -1.95951500       2.62781500       1.42184600
C       -0.71280200       2.31596000       1.96674600
C       -0.60055200       1.20740000       2.80353300
C       -1.71749900       0.42260000       3.08416600
C       -2.95070400       0.73072300       2.52222900
H       -4.02433500       2.09065800       1.24663800
H       -3.81545200       0.11174600       2.73053200
H       -2.05314200       3.49249000       0.77676900
H        0.35119600       0.92809200       3.23858700
H       -1.61925000      -0.43637300       3.73527500
C        0.45923700       3.16323100       1.54076500
N        1.61766400       3.16165800       2.48898800
H        0.13016000       4.19123400       1.39120400
H        0.81319100       2.80077500       0.57404800
H        1.88590600       4.12046100       2.69233800
H        1.34544900       2.76501800       3.38453100
Cu       3.16919900       2.22236300       1.77266300
18
Properties=species:S:1:pos:R:3 energy=-1967.18550066602 pbc="F F F"
C       -3.06842700       1.83873200       1.68841500
C       -1.95795800       2.62780300       1.42308100
C       -0.71153400       2.31698500       1.96885200
C       -0.60101800       1.20747600       2.80532900
C       -1.71874000       0.42241500       3.08438500
C       -2.95116700       0.73035400       2.52172300
H       -4.02308500       2.09100600       1.24440800
H       -3.81478500       0.11244400       2.72852500
H       -2.05062700       3.49311400       0.77694100
H        0.35122600       0.92751500       3.24109600
H       -1.62034200      -0.43726000       3.73525200
C        0.45856400       3.16224700       1.54141300
N        1.61793200       3.16324700       2.49118300
H        0.13150000       4.18933000       1.38807500
H        0.81427800       2.79592900       0.57803600
H        1.88358000       4.12304400       2.69627400
H        1.34691800       2.76433200       3.38683700
Cu       3.16310700       2.22547100       1.76054600
18
Properties=species:S:1:pos:R:3 energy=-1967.185364223059 pbc="F F F"
C       -3.06737900       1.83950500       1.68742200
C       -1.95701000       2.62823800       1.42379500
C       -0.71168600       2.31683600       1.97135600
C       -0.60100800       1.20711900       2.80743900
C       -1.71853100       0.42229300       3.08489700
C       -2.95072500       0.73073900       2.52093300
H       -4.02118100       2.09125000       1.24242500
H       -3.81524800       0.11241400       2.72685300
H       -2.04789300       3.49302900       0.77752400
H        0.35068200       0.92694800       3.24326400
H       -1.62145600      -0.43794600       3.73498600
C        0.45977700       3.16140700       1.54368500
N        1.61742500       3.16541700       2.49394700
H        0.13256700       4.18804600       1.38450500
H        0.81571100       2.79061600       0.58129600
H        1.88098600       4.12516900       2.70015700
H        1.34839700       2.76417900       3.38873900
Cu       3.15609900       2.22820100       1.74774400
18
Properties=species:S:1:pos:R:3 energy=-1967.185212849186 pbc="F F F"
C       -3.06628100       1.83961300       1.68691700
C       -1.95551500       2.62840100       1.42472200
C       -0.71085900       2.31733900       1.97354300
C       -0.60107500       1.20699400       2.80920000
C       -1.71913300       0.42205100       3.08518300
C       -2.95068100       0.73077400       2.52032900
H       -4.01957000       2.09165300       1.24034400
H       -3.81494300       0.11298000       2.72514700
H       -2.04507500       3.49329800       0.77774300
H        0.35068700       0.92624000       3.24542300
H       -1.62241400      -0.43877800       3.73481000
C        0.45986300       3.16048900       1.54500100
N        1.61722900       3.16739300       2.49662000
H        0.13383900       4.18631800       1.38100500
H        0.81712900       2.78554300       0.58512900
H        1.87852500       4.12773200       2.70412900
H        1.34956500       2.76411400       3.39120200
Cu       3.14843500       2.23054200       1.73483700
18
Properties=species:S:1:pos:R:3 energy=-1967.185047583782 pbc="F F F"
C       -3.06513600       1.84019400       1.68609900
C       -1.95435800       2.62872700       1.42534800
C       -0.71069700       2.31725800       1.97579400
C       -0.60087700       1.20659900       2.81103000
C       -1.71897700       0.42185900       3.08557300
C       -2.95017000       0.73120000       2.51961500
H       -4.01769200       2.09202200       1.23849200
H       -3.81517100       0.11321600       2.72371300
H       -2.04222300       3.49322300       0.77810300
H        0.35045500       0.92554000       3.24726800
H       -1.62330900      -0.43948000       3.73452300
C        0.46085900       3.15969700       1.54699200
N        1.61666200       3.16958500       2.49950700
H        0.13496700       4.18491100       1.37739800
H        0.81870400       2.78046600       0.58850600
H        1.87602500       4.13001700       2.70794100
H        1.35061500       2.76439100       3.39347300
Cu       3.14035100       2.23250000       1.72197100
18
Properties=species:S:1:pos:R:3 energy=-1967.184867502968 pbc="F F F"
C       -3.06400100       1.84028900       1.68563700
C       -1.95275400       2.62887800       1.42610100
C       -0.70978900       2.31763800       1.97776900
C       -0.60075600       1.20643900       2.81251200
C       -1.71943100       0.42157000       3.08579300
C       -2.94999500       0.73129700       2.51908700
H       -4.01606000       2.09250700       1.23661300
H       -3.81479000       0.11392100       2.72227600
H       -2.03935500       3.49339300       0.77819400
H        0.35067200       0.92473000       3.24908900
H       -1.62407400      -0.44027500       3.73431900
C        0.46099600       3.15881900       1.54830400
N        1.61633500       3.17160200       2.50231300
H        0.13625400       4.18319800       1.37389800
H        0.82029800       2.77564300       0.59223400
H        1.87365300       4.13259800       2.71177900
H        1.35141100       2.76474800       3.39612100
Cu       3.13184900       2.23417000       1.70914000
18
Properties=species:S:1:pos:R:3 energy=-1967.184672647233 pbc="F F F"
C       -3.06284700       1.84090700       1.68482300
C       -1.95158500       2.62917500       1.42655400
C       -0.70964300       2.31740000       1.97981700
C       -0.60039100       1.20592200       2.81414300
C       -1.71903900       0.42136400       3.08613500
C       -2.94934900       0.73182200       2.51842000
H       -4.01414600       2.09293100       1.23499400
H       -3.81501000       0.11422900       2.72110500
H       -2.03650500       3.49322200       0.77844900
H        0.35056400       0.92397400       3.25059300
H       -1.62479400      -0.44091200       3.73401000
C        0.46215000       3.15812200       1.55025100
N        1.61566600       3.17381200       2.50528300
H        0.13739200       4.18180400       1.37034800
H        0.82205400       2.77084000       0.59552000
H        1.87124700       4.13485100       2.71543000
H        1.35211700       2.76538000       3.39852900
Cu       3.12312500       2.23557800       1.69643400
18
Properties=species:S:1:pos:R:3 energy=-1967.184459665069 pbc="F F F"
C       -3.06161300       1.84095000       1.68445200
C       -1.94992700       2.62924300       1.42720100
C       -0.70856200       2.31777800       1.98154900
C       -0.60015600       1.20572400       2.81539100
C       -1.71947300       0.42107100       3.08625400
C       -2.94907500       0.73195700       2.51796000
H       -4.01259600       2.09350100       1.23327200
H       -3.81455000       0.11504500       2.71988200
H       -2.03363400       3.49336900       0.77840300
H        0.35098800       0.92309200       3.25216000
H       -1.62539600      -0.44170500       3.73383900
C        0.46225700       3.15724100       1.55153500
N        1.61527700       3.17580200       2.50817700
H        0.13872400       4.18006400       1.36691200
H        0.82389200       2.76623400       0.59925100
H        1.86895100       4.13746800       2.71916800
H        1.35258500       2.76605300       3.40131700
Cu       3.11398500       2.23681400       1.68362800
18
Properties=species:S:1:pos:R:3 energy=-1967.184248779938 pbc="F F F"
C       -3.06063800       1.84194100       1.68340200
C       -1.94868800       2.62915000       1.42777900
C       -0.70856400       2.31787400       1.98291700
C       -0.59969500       1.20482500       2.81698700
C       -1.71913800       0.42117200       3.08627200
C       -2.94833100       0.73194900       2.51779900
H       -4.01078200       2.09389600       1.23200900
H       -3.81460700       0.11550400       2.71893100
H       -2.03106900       3.49330700       0.77844700
H        0.35096300       0.92240400       3.25328000
H       -1.62592500      -0.44232600       3.73362400
C        0.46331900       3.15654100       1.55331200
N        1.61472700       3.17784600       2.51090400
H        0.13976900       4.17881800       1.36375000
H        0.82571200       2.76203400       0.60226400
H        1.86680200       4.13950000       2.72239600
H        1.35292700       2.76684100       3.40364900
Cu       3.10556700       2.23779600       1.67211600
18
Properties=species:S:1:pos:R:3 energy=-1967.184137744358 pbc="F F F"
C       -3.06023400       1.84278600       1.68263400
C       -1.94846100       2.62925600       1.42784200
C       -0.70913400       2.31747700       1.98367900
C       -0.59934400       1.20417200       2.81789300
C       -1.71837800       0.42125500       3.08642100
C       -2.94770900       0.73221800       2.51761200
H       -4.00972000       2.09400800       1.23157400
H       -3.81507800       0.11540300       2.71861500
H       -2.02991200       3.49304300       0.77862800
H        0.35065900       0.92215200       3.25364800
H       -1.62618800      -0.44248200       3.73343300
C        0.46453700       3.15636900       1.55456200
N        1.61426600       3.17891800       2.51223700
H        0.14013000       4.17847200       1.36225700
H        0.82659400       2.76006000       0.60335100
H        1.86576600       4.14018600       2.72377000
H        1.35311000       2.76729600       3.40450700
Cu       3.10175800       2.23820600       1.66693400
18
Properties=species:S:1:pos:R:3 energy=-1967.183671745148 pbc="F F F"
C       -3.05786100       1.84178900       1.68281400
C       -1.94483600       2.62949200       1.42870900
C       -0.70578500       2.31829700       1.98646600
C       -0.59891800       1.20455800       2.81905600
C       -1.71972800       0.42025200       3.08660300
C       -2.94782000       0.73250400       2.51670500
H       -4.00737600       2.09533500       1.22861700
H       -3.81332700       0.11757400       2.71666300
H       -2.02469100       3.49337700       0.77819700
H        0.35226800       0.92029600       3.25621500
H       -1.62694500      -0.44387200       3.73321700
C        0.46359900       3.15461000       1.55614000
N        1.61371800       3.18223100       2.51756500
H        0.14289900       4.17482100       1.35636900
H        0.83044300       2.75224600       0.61063900
H        1.86168800       4.14533800       2.73052000
H        1.35302000       2.76905300       3.41015700
Cu       3.08386500       2.23973600       1.64381800
18
Properties=species:S:1:pos:R:3 energy=-1967.183122619397 pbc="F F F"
C       -3.05536800       1.84334600       1.68116800
C       -1.94270100       2.62963800       1.42906800
C       -0.70568300       2.31724400       1.98951600
C       -0.59772800       1.20292600       2.82154400
C       -1.71811700       0.42002500       3.08697600
C       -2.94586200       0.73382400       2.51564900
H       -4.00364100       2.09641800       1.22640800
H       -3.81380800       0.11833400       2.71529700
H       -2.01925300       3.49285100       0.77822700
H        0.35246400       0.91872600       3.25793500
H       -1.62772300      -0.44478200       3.73265700
C        0.46671200       3.15343600       1.55999000
N        1.61219900       3.18646300       2.52373800
H        0.14529900       4.17208500       1.34996400
H        0.83481000       2.74384800       0.61684300
H        1.85698800       4.14952400       2.73714800
H        1.35256700       2.77162700       3.41526500
Cu       3.06458200       2.24101500       1.62009200
18
Properties=species:S:1:pos:R:3 energy=-1967.182504263257 pbc="F F F"
C       -3.05288000       1.84320900       1.68073800
C       -1.93905900       2.62980600       1.42962300
C       -0.70307000       2.31746300       1.99199800
C       -0.59682400       1.20266400       2.82279500
C       -1.71851900       0.41926200       3.08706800
C       -2.94525200       0.73425700       2.51489500
H       -4.00079200       2.09786400       1.22388000
H       -3.81245300       0.12038300       2.71369600
H       -2.01373100       3.49286100       0.77774600
H        0.35398700       0.91681200       3.25999200
H       -1.62828300      -0.44600900       3.73242100
C        0.46706900       3.15156000       1.56249000
N        1.61123600       3.19019200       2.52990400
H        0.14827400       4.16846700       1.34390200
H        0.83919500       2.73578600       0.62383300
H        1.85236300       4.15459600       2.74412800
H        1.35137900       2.77425900       3.42126300
Cu       3.04435400       2.24213400       1.59646400
18
Properties=species:S:1:pos:R:3 energy=-1967.181825836246 pbc="F F F"
C       -3.05049400       1.84470000       1.67911400
C       -1.93657400       2.62995900       1.42970400
C       -0.70231300       2.31651000       1.99462600
C       -0.59538500       1.20094800       2.82494400
C       -1.71688700       0.41887700       3.08740100
C       -2.94353300       0.73530100       2.51402800
H       -3.99698500       2.09914500       1.22196600
H       -3.81238800       0.12160200       2.71248700
H       -2.00813700       3.49234200       0.77754800
H        0.35455000       0.91516100       3.26140000
H       -1.62881400      -0.44677700       3.73192000
C        0.46996800       3.15029200       1.56590900
N        1.60969700       3.19434300       2.53642600
H        0.15106600       4.16527200       1.33775900
H        0.84366600       2.72761300       0.63016100
H        1.84736200       4.15903800       2.75093800
H        1.34971200       2.77732200       3.42711800
Cu       3.02329000       2.24307900       1.57317400
18
Properties=species:S:1:pos:R:3 energy=-1967.181098498946 pbc="F F F"
C       -3.04786400       1.84461900       1.67870800
C       -1.93271600       2.63004900       1.43008000
C       -0.69969100       2.31665800       1.99655100
C       -0.59427200       1.20051600       2.82596600
C       -1.71704000       0.41819700       3.08737000
C       -2.94272400       0.73581800       2.51332300
H       -3.99420500       2.10077800       1.21970600
H       -3.81096600       0.12373100       2.71112800
H       -2.00256500       3.49232800       0.77690300
H        0.35632700       0.91320500       3.26315100
H       -1.62914700      -0.44792800       3.73181700
C        0.47041800       3.14843600       1.56884500
N        1.60849000       3.19801800       2.54302800
H        0.15423000       4.16162400       1.33196000
H        0.84804100       2.71979400       0.63645300
H        1.84244400       4.16397700       2.75788100
H        1.34751200       2.78047200       3.43335500
Cu       3.00185700       2.24376500       1.55054400
18
Properties=species:S:1:pos:R:3 energy=-1967.180383286874 pbc="F F F"
C       -3.04571600       1.84669100       1.67672900
C       -1.93049100       2.62961000       1.43027900
C       -0.69948400       2.31589900       1.99846300
C       -0.59252800       1.19828700       2.82813700
C       -1.71562000       0.41829200       3.08724300
C       -2.94029100       0.73648700       2.51301200
H       -3.99048700       2.10201400       1.21833700
H       -3.81107600       0.12480400       2.71021000
H       -1.99744600       3.49200900       0.77649600
H        0.35677400       0.91179000       3.26407800
H       -1.62943700      -0.44859200       3.73151000
C        0.47377800       3.14707100       1.57142700
N        1.60689000       3.20179500       2.54918000
H        0.15685100       4.15886400       1.32659100
H        0.85166000       2.71297200       0.64199600
H        1.83767700       4.16795600       2.76406500
H        1.34520300       2.78355100       3.43913200
Cu       2.98178200       2.24409700       1.53024900
18
Properties=species:S:1:pos:R:3 energy=-1967.180069707803 pbc="F F F"
C       -3.04509500       1.84829600       1.67535600
C       -1.93056600       2.62950100       1.43005000
C       -0.70032400       2.31489400       1.99957200
C       -0.59156700       1.19685700       2.82939400
C       -1.71419500       0.41839900       3.08740200
C       -2.93869900       0.73718100       2.51277300
H       -3.98860500       2.10230800       1.21814000
H       -3.81196100       0.12461000       2.71007100
H       -1.99562800       3.49161100       0.77656200
H        0.35630700       0.91145500       3.26412200
H       -1.62956900      -0.44859000       3.73123400
C        0.47658800       3.14684600       1.57207400
N        1.60598900       3.20332700       2.55133300
H        0.15762800       4.15810600       1.32464700
H        0.85275100       2.71068600       0.64412600
H        1.83589500       4.16910700       2.76617600
H        1.34440100       2.78468500       3.44116300
Cu       2.97461600       2.24417100       1.52308800
18
Properties=species:S:1:pos:R:3 energy=-1967.178473620267 pbc="F F F"
C       -3.03955100       1.84682200       1.67579700
C       -1.92202800       2.62971700       1.43047100
C       -0.69378200       2.31529100       2.00187400
C       -0.58965600       1.19689600       2.82984600
C       -1.71454200       0.41691100       3.08721100
C       -2.93808000       0.73813400       2.51127200
H       -3.98391900       2.10602100       1.21435100
H       -3.80783700       0.12959400       2.70771000
H       -1.98505400       3.49162600       0.77503900
H        0.36084700       0.90745900       3.26720400
H       -1.62977300      -0.45048800       3.73141600
C        0.47554400       3.14376800       1.57858600
N        1.60332500       3.20989300       2.56460500
H        0.16466100       4.15093600       1.31446300
H        0.86113100       2.69721900       0.65366700
H        1.82610800       4.17864600       2.77911900
H        1.33839300       2.79143900       3.45366900
Cu       2.93112800       2.24333900       1.48185800
18
Properties=species:S:1:pos:R:3 energy=-1967.176513630963 pbc="F F F"
C       -3.03418000       1.84940100       1.67316800
C       -1.91675500       2.62971100       1.42951200
C       -0.69096200       2.31253400       2.00588700
C       -0.58584800       1.19377600       2.83229900
C       -1.71120900       0.41587800       3.08755800
C       -2.93377300       0.74054500       2.50965300
H       -3.97652900       2.10941700       1.21214400
H       -3.80707600       0.13246700       2.70613400
H       -1.97415600       3.49059200       0.77419100
H        0.36297100       0.90402500       3.26901400
H       -1.62998800      -0.45119800       3.73106400
C        0.48224200       3.14075800       1.58368200
N        1.59943200       3.21760300       2.57860500
H        0.17206600       4.14494000       1.30389900
H        0.86899800       2.68474800       0.66439100
H        1.81532900       4.18762700       2.79220800
H        1.33158100       2.79906500       3.46656700
Cu       2.88415000       2.24156700       1.43858600
18
Properties=species:S:1:pos:R:3 energy=-1967.17430600589 pbc="F F F"
C       -3.02846600       1.85002400       1.67205700
C       -1.90908900       2.62942800       1.42916000
C       -0.68579000       2.31142100       2.00795800
C       -0.58267700       1.19166700       2.83357800
C       -1.70942600       0.41478600       3.08737400
C       -2.93107700       0.74207300       2.50818300
H       -3.97036500       2.11333000       1.20979300
H       -3.80443100       0.13657600       2.70431100
H       -1.96338700       3.49015300       0.77281700
H        0.36654600       0.90010400       3.27134000
H       -1.63003100      -0.45233400       3.73141600
C        0.48548600       3.13837600       1.59067900
N        1.59632500       3.22490900       2.59250700
H        0.18100600       4.13780800       1.29384500
H        0.87724000       2.67219100       0.67315400
H        1.80437900       4.19720000       2.80558900
H        1.32393100       2.80709400       3.47966100
Cu       2.83646700       2.23902700       1.39535300
18
Properties=species:S:1:pos:R:3 energy=-1967.171890484301 pbc="F F F"
C       -3.02261300       1.85199000       1.66998600
C       -1.90261900       2.62895400       1.42799300
C       -0.68156500       2.30885300       2.01062400
C       -0.57871200       1.18869500       2.83498600
C       -1.70670000       0.41373600       3.08729600
C       -2.92715100       0.74390600       2.50686700
H       -3.96340600       2.11721900       1.20825800
H       -3.80279000       0.14000300       2.70273000
H       -1.95277600       3.48937600       0.77173700
H        0.36930700       0.89627700       3.27337900
H       -1.63006300      -0.45294000       3.73177400
C        0.49215500       3.13488100       1.59614400
N        1.59286000       3.23251900       2.60742100
H        0.19083700       4.13140200       1.28350700
H        0.88373000       2.66078000       0.68157600
H        1.79328800       4.20652000       2.81929400
H        1.31585200       2.81563200       3.49307800
Cu       2.78789800       2.23623500       1.35276700
18
Properties=species:S:1:pos:R:3 energy=-1967.169310105221 pbc="F F F"
C       -3.01680400       1.85298800       1.66880800
C       -1.89475800       2.62813300       1.42698200
C       -0.67599800       2.30692400       2.01132300
C       -0.57513800       1.18561000       2.83581400
C       -1.70438500       0.41265600       3.08720400
C       -2.92398200       0.74559600       2.50562100
H       -3.95688400       2.12128700       1.20690700
H       -3.80038900       0.14381800       2.70094600
H       -1.94251200       3.48894400       0.77052600
H        0.37253800       0.89217400       3.27584800
H       -1.63008500      -0.45360200       3.73247200
C        0.49692900       3.13267200       1.60328200
N        1.58956200       3.23981400       2.62226300
H        0.20249400       4.12367000       1.27305600
H        0.88898000       2.64900400       0.68610500
H        1.78273200       4.21613500       2.83347200
H        1.30752600       2.82406100       3.50781300
Cu       2.73847000       2.23403500       1.31217200
18
Properties=species:S:1:pos:R:3 energy=-1967.166542962276 pbc="F F F"
C       -3.01061500       1.85482600       1.66750700
C       -1.88775700       2.62725500       1.42513700
C       -0.67078200       2.30331400       2.01194600
C       -0.57093400       1.18229400       2.83623200
C       -1.70201800       0.41194400       3.08714400
C       -2.92038400       0.74734800       2.50490800
H       -3.95009400       2.12509200       1.20607600
H       -3.79848500       0.14706200       2.69911300
H       -1.93293400       3.48837300       0.76976600
H        0.37502200       0.88818000       3.27844000
H       -1.63015200      -0.45414700       3.73321400
C        0.50470900       3.12792300       1.60792700
N        1.58567200       3.24850700       2.63900800
H        0.21547500       4.11635700       1.26179300
H        0.89121000       2.63884900       0.68754000
H        1.77361800       4.22466500       2.84795800
H        1.30025100       2.83234500       3.52368800
Cu       2.68693400       2.23329500       1.27450700
18
Properties=species:S:1:pos:R:3 energy=-1967.163541211704 pbc="F F F"
C       -3.00525200       1.85646000       1.66695500
C       -1.87988700       2.62615700       1.42378100
C       -0.66449200       2.29965000       2.01025800
C       -0.56767600       1.17898000       2.83636900
C       -1.69987800       0.41145400       3.08763700
C       -2.91750100       0.74886300       2.50440200
H       -3.94360700       2.12831000       1.20548400
H       -3.79639700       0.15008100       2.69716100
H       -1.92456200       3.48825100       0.76905200
H        0.37744200       0.88429100       3.28142500
H       -1.63030700      -0.45469900       3.73374000
C        0.51185900       3.12451300       1.61304900
N        1.58070700       3.25531100       2.65636000
H        0.23021800       4.10669500       1.25073500
H        0.89209000       2.62879200       0.68122400
H        1.76752000       4.23485500       2.86293400
H        1.29516300       2.83998700       3.54066000
Cu       2.63366300       2.23492200       1.24145400
18
Properties=species:S:1:pos:R:3 energy=-1967.160221518057 pbc="F F F"
C       -2.99918400       1.85831900       1.66710600
C       -1.87399800       2.62518100       1.42287600
C       -0.65839800       2.29577500       2.00752000
C       -0.56414400       1.17610000       2.83735300
C       -1.69837500       0.41142200       3.08831700
C       -2.91477000       0.75019000       2.50370100
H       -3.93808400       2.13079400       1.20484300
H       -3.79498700       0.15236800       2.69553400
H       -1.91763600       3.48817000       0.76866900
H        0.37870800       0.88098700       3.28410500
H       -1.63052400      -0.45543600       3.73395300
C        0.52136000       3.11728700       1.61474800