18
Properties=species:S:1:pos:R:3 energy=-1967.185827246172 pbc="F F F"
C       -3.06691800       1.83790400       1.67520100
C       -1.95502300       2.62361800       1.41004600
C       -0.71110700       2.31699300       1.96541300
C       -0.60689800       1.21474700       2.81234900
C       -1.72645200       0.43296900       3.09139600
C       -2.95562900       0.73577200       2.51881800
H       -4.01943800       2.08732500       1.22524600
H       -3.82118500       0.12010000       2.72607300
H       -2.04519900       3.48498100       0.75839600
H        0.34139300       0.93895700       3.25815800
H       -1.63282400      -0.42031800       3.75134100
C        0.46073500       3.16628900       1.54569700
N        1.62650800       3.14291500       2.48513900
H        1.35167200       2.75260000       3.38295600
H        1.91164500       4.09771100       2.68570900
H        0.13431000       4.19805700       1.42088600
H        0.80537300       2.82329300       0.56945300
Cu       3.17210000       2.18705100       1.78087300
18
Properties=species:S:1:pos:R:3 energy=-1967.18582811407 pbc="F F F"
C       -3.06660900       1.83816900       1.67497500
C       -1.95492800       2.62359900       1.41038000
C       -0.71104400       2.31716900       1.96595400
C       -0.60712800       1.21463200       2.81295400
C       -1.72649600       0.43306300       3.09148800
C       -2.95577600       0.73567500       2.51869000
H       -4.01912500       2.08739500       1.22475500
H       -3.82121000       0.12012800       2.72554100
H       -2.04466400       3.48512400       0.75856000
H        0.34121100       0.93889100       3.25882300
H       -1.63318800      -0.42049600       3.75135400
C        0.46085100       3.16600200       1.54602800
N        1.62656500       3.14329400       2.48555100
H        1.35223500       2.75219300       3.38320400
H        1.91099600       4.09817300       2.68665200
H        0.13461800       4.19769800       1.42007500
H        0.80556300       2.82199700       0.57015700
Cu       3.17118900       2.18825700       1.77801000
18
Properties=species:S:1:pos:R:3 energy=-1967.185869640578 pbc="F F F"
C       -3.06740500       1.83716500       1.67543700
C       -1.95404300       2.62454200       1.41006300
C       -0.71124100       2.31664400       1.96660000
C       -0.60649900       1.21545500       2.81276300
C       -1.72744800       0.43236100       3.09182300
C       -2.95508200       0.73650800       2.51820000
H       -4.01884500       2.08747000       1.22454500
H       -3.82154200       0.11989900       2.72539400
H       -2.04444000       3.48491400       0.75882600
H        0.34103800       0.93883500       3.25911100
H       -1.63331000      -0.42038000       3.75122400
C        0.46092200       3.16599300       1.54611200
N        1.62655300       3.14339300       2.48578400
H        1.35249600       2.75203500       3.38328800
H        1.91071300       4.09841700       2.68707300
H        0.13476900       4.19751300       1.41970700
H        0.80565500       2.82142200       0.57047200
Cu       3.17077300       2.18878100       1.77672900
18
Properties=species:S:1:pos:R:3 energy=-1967.185788501236 pbc="F F F"
C       -3.06620000       1.83851400       1.67468700
C       -1.95482300       2.62355600       1.41079800
C       -0.71094400       2.31740300       1.96661300
C       -0.60741800       1.21447100       2.81370200
C       -1.72652600       0.43319300       3.09158900
C       -2.95596700       0.73554000       2.51854100
H       -4.01873300       2.08748500       1.22414700
H       -3.82122700       0.12017700       2.72488900
H       -2.04399100       3.48530100       0.75875300
H        0.34100000       0.93880300       3.25963300
H       -1.63362900      -0.42072100       3.75136500
C        0.46098700       3.16564100       1.54645000
N        1.62662400       3.14377600       2.48608300
H        1.35291000       2.75172500       3.38353400
H        1.91019900       4.09875600       2.68782000
H        0.13499800       4.19725500       1.41906500
H        0.80581400       2.82039000       0.57104100
Cu       3.16998800       2.18970000       1.77444000
18
Properties=species:S:1:pos:R:3 energy=-1967.185768823607 pbc="F F F"
C       -3.06616100       1.83845200       1.67463100
C       -1.95450000       2.62379500       1.41097300
C       -0.71093900       2.31739900       1.96721800
C       -0.60742100       1.21459800       2.81412500
C       -1.72680900       0.43307500       3.09174800
C       -2.95588700       0.73569300       2.51830700
H       -4.01839800       2.08756400       1.22370000
H       -3.82133000       0.12014800       2.72443500
H       -2.04348900       3.48535200       0.75894900
H        0.34082200       0.93872700       3.26022700
H       -1.63394100      -0.42083500       3.75133200
C        0.46110000       3.16541300       1.54674400
N        1.62665500       3.14411900       2.48650000
H        1.35340400       2.75139900       3.38378500
H        1.90961000       4.09920300       2.68869000
H        0.13528400       4.19691600       1.41830800
H        0.80600900       2.81919700       0.57170700
Cu       3.16905400       2.19074700       1.77177200
18
Properties=species:S:1:pos:R:3 energy=-1967.185747247365 pbc="F F F"
C       -3.06600500       1.83852800       1.67450400
C       -1.95426900       2.62392600       1.41120200
C       -0.71090500       2.31746600       1.96778700
C       -0.60750500       1.21461600       2.81461100
C       -1.72697800       0.43303900       3.09187500
C       -2.95588600       0.73574900       2.51812100
H       -4.01806700       2.08764200       1.22324200
H       -3.82139600       0.12014900       2.72396600
H       -2.04296600       3.48543300       0.75912400
H        0.34065500       0.93865100       3.26082600
H       -1.63425900      -0.42097300       3.75130900
C        0.46121800       3.16517200       1.54705400
N        1.62668400       3.14448600       2.48693500
H        1.35389400       2.75108500       3.38406100
H        1.90900900       4.09966100       2.68958100
H        0.13557500       4.19657000       1.41753000
H        0.80621600       2.81797500       0.57240000
Cu       3.16805000       2.19178900       1.76902500
18
Properties=species:S:1:pos:R:3 energy=-1967.185718432512 pbc="F F F"
C       -3.06604200       1.83834300       1.67449100
C       -1.95378400       2.62430000       1.41136900
C       -0.71091500       2.31740500       1.96855000
C       -0.60742700       1.21485400       2.81506700
C       -1.72740600       0.43282600       3.09208500
C       -2.95571300       0.73601600       2.51780200
H       -4.01764600       2.08774500       1.22270300
H       -3.82154100       0.12010200       2.72343500
H       -2.04235300       3.48547100       0.75936600
H        0.34044400       0.93855000       3.26153000
H       -1.63462200      -0.42110000       3.75125500
C        0.46135100       3.16490600       1.54741500
N        1.62670800       3.14490400       2.48746100
H        1.35446900       2.75072800       3.38438600
H        1.90830400       4.10021400       2.69063300
H        0.13592000       4.19616200       1.41661000
H        0.80646700       2.81653400       0.57321300
Cu       3.16685000       2.19300300       1.76578100
18
Properties=species:S:1:pos:R:3 energy=-1967.185727081546 pbc="F F F"
C       -3.06642900       1.83784800       1.67469300
C       -1.95326700       2.62481100       1.41125000
C       -0.71101800       2.31715500       1.96898300
C       -0.60709900       1.21526800       2.81507000
C       -1.72793500       0.43245700       3.09227400
C       -2.95533600       0.73645200       2.51752300
H       -4.01742400       2.08780000       1.22250800
H       -3.82172300       0.11999000       2.72327300
H       -2.04212400       3.48537500       0.75953300
H        0.34032600       0.93850200       3.26178400
H       -1.63474000      -0.42107100       3.75118000
C        0.46141700       3.16485700       1.54752500
N        1.62669900       3.14503800       2.48768400
H        1.35468200       2.75061300       3.38450700
H        1.90804100       4.10043900       2.69103000
H        0.13605400       4.19599800       1.41625900
H        0.80656900       2.81599300       0.57352500
Cu       3.16636900       2.19344100       1.76455000
18
Properties=species:S:1:pos:R:3 energy=-1967.18566748138 pbc="F F F"
C       -3.06559000       1.83867600       1.67419100
C       -1.95358300       2.62429800       1.41180500
C       -0.71079400       2.31762500       1.96932700
C       -0.60768400       1.21470600       2.81587200
C       -1.72745600       0.43292300       3.09220400
C       -2.95586100       0.73592800       2.51760800
H       -4.01716100       2.08786400       1.22200500
H       -3.82155600       0.12017900       2.72272400
H       -2.04152700       3.48564700       0.75957000
H        0.34024500       0.93842000       3.26241500
H       -1.63509200      -0.42136400       3.75123900
C        0.46152100       3.16451200       1.54792300
N        1.62673500       3.14550300       2.48816400
H        1.35515800       2.75032700       3.38487500
H        1.90739800       4.10092900       2.69199800
H        0.13635700       4.19564400       1.41540700
H        0.80682400       2.81467000       0.57429600
Cu       3.16513200       2.19447700       1.76152900
18
Properties=species:S:1:pos:R:3 energy=-1967.185637393808 pbc="F F F"
C       -3.06577500       1.83833600       1.67425600
C       -1.95297700       2.62479700       1.41187100
C       -0.71083600       2.31747300       1.97008400
C       -0.60746200       1.21504200       2.81621700
C       -1.72798700       0.43259600       3.09243800
C       -2.95554700       0.73632000       2.51725400
H       -4.01672400       2.08797200       1.22151500
H       -3.82173600       0.12011200       2.72226900
H       -2.04093500       3.48562500       0.75981300
H        0.34005400       0.93831100       3.26303300
H       -1.63540000      -0.42145100       3.75115200
C        0.46165900       3.16430000       1.54825600
N        1.62672900       3.14590400       2.48870600
H        1.35564100       2.75007500       3.38523200
H        1.90675200       4.10146900       2.69298100
H        0.13667800       4.19525500       1.41453400
H        0.80709400       2.81333300       0.57508700
Cu       3.16383500       2.19549500       1.75845400
18
Properties=species:S:1:pos:R:3 energy=-1967.185624377704 pbc="F F F"
C       -3.06541000       1.83860700       1.67401800
C       -1.95282500       2.62478000       1.41220300
C       -0.71073500       2.31764500       1.97066700
C       -0.60765700       1.21491200       2.81682700
C       -1.72799900       0.43267600       3.09252000
C       -2.95566000       0.73624500       2.51711400
H       -4.01634800       2.08806600       1.22098500
H       -3.82173800       0.12018400       2.72173800
H       -2.04029300       3.48575800       0.75995700
H        0.33991700       0.93820500       3.26369200
H       -1.63574700      -0.42165800       3.75113500
C        0.46178900       3.16400400       1.54864900
N        1.62673700       3.14637500       2.48926600
H        1.35613800       2.74980900       3.38563700
H        1.90606600       4.10202500       2.69402700
H        0.13701100       4.19485800       1.41360800
H        0.80738600       2.81191100       0.57593100
Cu       3.16242900       2.19656100       1.75517700
18
Properties=species:S:1:pos:R:3 energy=-1967.185606180661 pbc="F F F"
C       -3.06477700       1.83922900       1.67363500
C       -1.95303000       2.62440200       1.41262100
C       -0.71056600       2.31800300       1.97093600
C       -0.60806900       1.21448100       2.81744400
C       -1.72765200       0.43301700       3.09246400
C       -2.95602400       0.73586200       2.51717500
H       -4.01612200       2.08812200       1.22059400
H       -3.82161300       0.12033500       2.72132200
H       -2.03980700       3.48595800       0.75998200
H        0.33986000       0.93813300       3.26416800
H       -1.63600900      -0.42188500       3.75117000
C        0.46187600       3.16374200       1.54896800
N        1.62674600       3.14675600       2.48967600
H        1.35648100       2.74963000       3.38596200
H        1.90556400       4.10242700       2.69479500
H        0.13725000       4.19457400       1.41292600
H        0.80761100       2.81086800       0.57656000
Cu       3.16134300       2.19731100       1.75275300
18
Properties=species:S:1:pos:R:3 energy=-1967.185588594776 pbc="F F F"
C       -3.06566000       1.83810500       1.67412100
C       -1.95193200       2.62550100       1.41228300
C       -0.71077800       2.31740500       1.97176000
C       -0.60732700       1.21540900       2.81728900
C       -1.72874000       0.43219900       3.09285100
C       -2.95520400       0.73682300       2.51660100
H       -4.01570800       2.08822900       1.22028500
H       -3.82198000       0.12010900       2.72110200
H       -2.03941900       3.48571700       0.76029300
H        0.33967400       0.93803100       3.26455700
H       -1.63617200      -0.42178800       3.75100000
C        0.46198900       3.16370400       1.54914000
N        1.62670400       3.14697500       2.49009200
H        1.35678500       2.74951200       3.38620300
H        1.90514500       4.10282000       2.69544900
H        0.13747300       4.19429800       1.41233800
H        0.80781400       2.80998800       0.57709500
Cu       3.16039800       2.19792700       1.75069200
18
Properties=species:S:1:pos:R:3 energy=-1967.185523827678 pbc="F F F"
C       -3.06444800       1.83938200       1.67341900
C       -1.95264500       2.62455300       1.41296900
C       -0.71045900       2.31812000       1.97178300
C       -0.60816300       1.21445600       2.81816600
C       -1.72783300       0.43298000       3.09261700
C       -2.95601100       0.73593600       2.51691100
H       -4.01556800       2.08826500       1.21988900
H       -3.82166100       0.12041000       2.72064600
H       -2.03891500       3.48607400       0.76019600
H        0.33968200       0.93797000       3.26502200
H       -1.63644700      -0.42213200       3.75111100
C        0.46206000       3.16337100       1.54950200
N        1.62672400       3.14740200       2.49049200
H        1.35709800       2.74935100       3.38656400
H        1.90464700       4.10321000       2.69621700
H        0.13770300       4.19403000       1.41165700
H        0.80805200       2.80894800       0.57773400
Cu       3.15924500       2.19863800       1.74825600
18
Properties=species:S:1:pos:R:3 energy=-1967.185523086102 pbc="F F F"
C       -3.06493000       1.83868100       1.67366500
C       -1.95175800       2.62534600       1.41285700
C       -0.71056400       2.31775100       1.97263000
C       -0.60768800       1.21507100       2.81830200
C       -1.72861700       0.43241100       3.09293000
C       -2.95544400       0.73661000       2.51643700
H       -4.01508900       2.08838900       1.21944000
H       -3.82192100       0.12029000       2.72027300
H       -2.03833500       3.48594800       0.76047200
H        0.33950800       0.93783800       3.26556900
H       -1.63670000      -0.42215300       3.75097100
C        0.46220700       3.16322400       1.54980700
N        1.62667800       3.14778900       2.49107400
H        1.35749400       2.74920400       3.38696100
H        1.90405000       4.10375300       2.69715300
H        0.13801100       4.19365300       1.41081500
H        0.80836000       2.80769200       0.57851600
Cu       3.15780200       2.19947000       1.74528000
18
Properties=species:S:1:pos:R:3 energy=-1967.185484987985 pbc="F F F"
C       -3.06417300       1.83940400       1.67322400
C       -1.95199600       2.62490200       1.41332300
C       -0.71035200       2.31816400       1.97292400
C       -0.60814300       1.21455100       2.81900400
C       -1.72819500       0.43280400       3.09285500
C       -2.95584900       0.73617700       2.51651200
H       -4.01482100       2.08846100       1.21899600
H       -3.82176900       0.12048000       2.71981700
H       -2.03775500       3.48616800       0.76048700
H        0.33946100       0.93774400       3.26608600
H       -1.63698100      -0.42242000       3.75100300
C        0.46231300       3.16293000       1.55018400
N        1.62666700       3.14824200       2.49158500
H        1.35784400       2.74906000       3.38738300
H        1.90348000       4.10423600       2.69804500
H        0.13828700       4.19332300       1.41001900
H        0.80865700       2.80649400       0.57926800
Cu       3.15638700       2.20024300       1.74243800
18
Properties=species:S:1:pos:R:3 energy=-1967.185454810079 pbc="F F F"
C       -3.06472000       1.83865200       1.67350700
C       -1.95109700       2.62569900       1.41317100
C       -0.71046900       2.31776200       1.97369600
C       -0.60763700       1.21520500       2.81903700
C       -1.72898300       0.43221800       3.09315700
C       -2.95526800       0.73686300       2.51605600
H       -4.01438500       2.08857500       1.21862000
H       -3.82201900       0.12036100       2.71951800
H       -2.03725700       3.48602700       0.76073500
H        0.33931500       0.93762000       3.26654200
H       -1.63718300      -0.42241500       3.75086400
C        0.46243400       3.16281500       1.55044200
N        1.62662100       3.14857600       2.49210400
H        1.35816200       2.74896100       3.38773600
H        1.90297300       4.10470500       2.69884400
H        0.13855200       4.19299900       1.40929600
H        0.80893800       2.80542600       0.57994300
Cu       3.15508800       2.20091600       1.73988200
18
Properties=species:S:1:pos:R:3 energy=-1967.185426633409 pbc="F F F"
C       -3.06432200       1.83903100       1.67327900
C       -1.95123200       2.62546400       1.41340900
C       -0.71035700       2.31797800       1.97383900
C       -0.60787300       1.21492900       2.81939900
C       -1.72875800       0.43242500       3.09311500
C       -2.95547900       0.73663600       2.51609700
H       -4.01425000       2.08861200       1.21839500
H       -3.82193900       0.12045900       2.71928800
H       -2.03696100       3.48613900       0.76074100
H        0.33929400       0.93757100       3.26680300
H       -1.63732500      -0.42255100       3.75088100
C        0.46249000       3.16266700       1.55063500
N        1.62661500       3.14880500       2.49236500
H        1.35833600       2.74889200       3.38795300
H        1.90268500       4.10495100       2.69929700
H        0.13869200       4.19283300       1.40889100
H        0.80909100       2.80481900       0.58032600
Cu       3.15435900       2.20130300       1.73843800
18
Properties=species:S:1:pos:R:3 energy=-1967.185406973614 pbc="F F F"
C       -3.06417100       1.83903700       1.67318000
C       -1.95086100       2.62562500       1.41360500
C       -0.71027800       2.31800200       1.97442500
C       -0.60785700       1.21499200       2.81980800
C       -1.72893600       0.43234100       3.09322500
C       -2.95540900       0.73675100       2.51589700
H       -4.01385500       2.08872000       1.21793100
H       -3.82196800       0.12052300       2.71886500
H       -2.03634000       3.48619900       0.76086800
H        0.33920500       0.93744000       3.26734400
H       -1.63759000      -0.42271600       3.75082700
C        0.46260300       3.16241900       1.55101200
N        1.62657600       3.14926500       2.49297100
H        1.35869100       2.74878500       3.38841500
H        1.90207800       4.10549800       2.70025800
H        0.13899900       4.19246900       1.40802300
H        0.80944200       2.80353600       0.58114300
Cu       3.15273800       2.20207800       1.73535300
18
Properties=species:S:1:pos:R:3 energy=-1967.185370796362 pbc="F F F"
C       -3.06374600       1.83935900       1.67292300
C       -1.95075600       2.62556100       1.41390300
C       -0.71015900       2.31818600       1.97493000
C       -0.60803000       1.21478100       2.82039300
C       -1.72886600       0.43244000       3.09327600
C       -2.95550200       0.73666100       2.51579300
H       -4.01348000       2.08882000       1.21744600
H       -3.82194600       0.12062700       2.71840600
H       -2.03569100       3.48630900       0.76097400
H        0.33911700       0.93732000       3.26790500
H       -1.63788000      -0.42292000       3.75079400
C        0.46275500       3.16217000       1.55139300
N        1.62653700       3.14974600       2.49357300
H        1.35906700       2.74865500       3.38889800
H        1.90144500       4.10606000       2.70125600
H        0.13931300       4.19208400       1.40712800
H        0.80978800       2.80220400       0.58199900
Cu       3.15109800       2.20290100       1.73216000
18
Properties=species:S:1:pos:R:3 energy=-1967.185244542996 pbc="F F F"
C       -3.06341200       1.83956900       1.67271800
C       -1.95052600       2.62558500       1.41415600
C       -0.71004900       2.31830500       1.97547000
C       -0.60811500       1.21466500       2.82091100
C       -1.72887600       0.43246300       3.09334800
C       -2.95551400       0.73665900       2.51565300
H       -4.01307300       2.08893100       1.21696400
H       -3.82194000       0.12072800       2.71796700
H       -2.03501900       3.48639000       0.76108100
H        0.33904400       0.93718200       3.26845100
H       -1.63815300      -0.42311300       3.75074400
C        0.46290400       3.16191900       1.55179300
N        1.62648300       3.15024800       2.49422400
H        1.35940700       2.74857600       3.38942300
H        1.90081000       4.10664300       2.70227200
H        0.13963500       4.19169400       1.40621200
H        0.81018000       2.80085800       0.58288200
Cu       3.14927900       2.20366200       1.72888000
18
Properties=species:S:1:pos:R:3 energy=-1967.185294493258 pbc="F F F"
C       -3.06310300       1.83974500       1.67253400
C       -1.95027600       2.62562300       1.41439400
C       -0.70993400       2.31840800       1.97600200
C       -0.60817800       1.21457300       2.82139700
C       -1.72890600       0.43247200       3.09341900
C       -2.95551300       0.73667200       2.51550900
H       -4.01267400       2.08904300       1.21649700
H       -3.82193200       0.12083100       2.71754600
H       -2.03436100       3.48646800       0.76118100
H        0.33897900       0.93704200       3.26897700
H       -1.63841300      -0.42330200       3.75069300
C        0.46304400       3.16167400       1.55218600
N        1.62642400       3.15074200       2.49487000
H        1.35972600       2.74851500       3.38994600
H        1.90019200       4.10721600       2.70326400
H        0.13995100       4.19131300       1.40531600
H        0.81057500       2.79954900       0.58375000
Cu       3.14746300       2.20438000       1.72567000
18
Properties=species:S:1:pos:R:3 energy=-1967.185167214683 pbc="F F F"
C       -3.06287700       1.83982000       1.67240000
C       -1.94994300       2.62574600       1.41458800
C       -0.70984100       2.31845100       1.97656800
C       -0.60817100       1.21456000       2.82183500
C       -1.72901400       0.43241100       3.09351500
C       -2.95544100       0.73676600       2.51532800
H       -4.01225800       2.08916100       1.21603300
H       -3.82194900       0.12091700       2.71713900
H       -2.03369900       3.48651900       0.76129300
H        0.33891300       0.93689600       3.26949600
H       -1.63866400      -0.42347300       3.75062800
C        0.46319100       3.16144100       1.55257400
N        1.62635800       3.15123400       2.49553100
H        1.36003400       2.74846900       3.39047800
H        1.89957500       4.10779500       2.70425800
H        0.14026900       4.19093000       1.40441700
H        0.81098100       2.79824100       0.58462400
Cu       3.14559900       2.20507900       1.72244600
18
Properties=species:S:1:pos:R:3 energy=-1967.185217349848 pbc="F F F"
C       -3.06261900       1.83992900       1.67225000
C       -1.94963500       2.62583800       1.41479000
C       -0.70973300       2.31851200       1.97711500
C       -0.60818000       1.21451500       2.82228100
C       -1.72908800       0.43237300       3.09360000
C       -2.95538700       0.73683500       2.51516200
H       -4.01184500       2.08927900       1.21557300
H       -3.82195400       0.12101500       2.71673700
H       -2.03303300       3.48657500       0.76139500
H        0.33885600       0.93674800       3.27000400
H       -1.63891000      -0.42365000       3.75056600
C        0.46333800       3.16120900       1.55296700
N        1.62628800       3.15173100       2.49619800
H        1.36032700       2.74844000       3.39102000
H        1.89896100       4.10837500       2.70524800
H        0.14058600       4.19054700       1.40352100
H        0.81139800       2.79694100       0.58550100
Cu       3.14369400       2.20575000       1.71922400
18
Properties=species:S:1:pos:R:3 energy=-1967.185193032299 pbc="F F F"
C       -3.06278900       1.83956700       1.67233500
C       -1.94897500       2.62631900       1.41478400
C       -0.70973600       2.31830700       1.97778300
C       -0.60789200       1.21484200       2.82248600
C       -1.72951800       0.43202200       3.09380600
C       -2.95504300       0.73725200       2.51483500
H       -4.01139900       2.08940400       1.21516400
H       -3.82207900       0.12101600       2.71641000
H       -2.03242900       3.48651500       0.76156100
H        0.33877800       0.93659500       3.27046100
H       -1.63911500      -0.42372700       3.75044800
C        0.46349200       3.16105200       1.55330200
N        1.62620000       3.15214400       2.49683800
H        1.36058800       2.74843900       3.39150900
H        1.89840400       4.10893400       2.70615900
H        0.14088300       4.19018400       1.40269700
H        0.81179300       2.79575600       0.58631000
Cu       3.14190000       2.20634300       1.71626300
18
Properties=species:S:1:pos:R:3 energy=-1967.185161682166 pbc="F F F"
C       -3.06247600       1.83974200       1.67215900
C       -1.94872400       2.62633600       1.41500500
C       -0.70961600       2.31840500       1.97826700
C       -0.60794400       1.21473500       2.82293100
C       -1.72951500       0.43203700       3.09386200
C       -2.95504200       0.73725900       2.51470700
H       -4.01101200       2.08951700       1.21473200
H       -3.82205400       0.12113500       2.71603300
H       -2.03178700       3.48658700       0.76163300
H        0.33874400       0.93644900       3.27093200
H       -1.63934200      -0.42390900       3.75039400
C        0.46363900       3.16082300       1.55368700
N        1.62612800       3.15262600       2.49748300
H        1.36084300       2.74843600       3.39204500
H        1.89782200       4.10949000       2.70710300
H        0.14118400       4.18982200       1.40184200
H        0.81220800       2.79452600       0.58715400
Cu       3.14000800       2.20694600       1.71318100
18
Properties=species:S:1:pos:R:3 energy=-1967.185116289415 pbc="F F F"
C       -3.06207000       1.84007500       1.67190900
C       -1.94870100       2.62621900       1.41530200
C       -0.70949900       2.31860800       1.97867800
C       -0.60814000       1.21453500       2.82345400
C       -1.72942900       0.43217100       3.09387900
C       -2.95516700       0.73712600       2.51464700
H       -4.01071600       2.08959600       1.21430700
H       -3.82202100       0.12122900       2.71562000
H       -2.03125000       3.48669600       0.76173100
H        0.33865800       0.93636800       3.27141800
H       -1.63960000      -0.42410300       3.75038300
C        0.46372900       3.16059000       1.55401300
N        1.62612500       3.15304300       2.49796400
H        1.36119400       2.74829500       3.39242700
H        1.89729100       4.10993900       2.70793700
H        0.14144100       4.18949900       1.40108900
H        0.81247600       2.79340000       0.58786800
Cu       3.13874100       2.20767800       1.71052400
18
Properties=species:S:1:pos:R:3 energy=-1967.185078234918 pbc="F F F"
C       -3.06155200       1.84062700       1.67152500
C       -1.94865900       2.62590000       1.41568700
C       -0.70938400       2.31895500       1.97890800
C       -0.60833100       1.21410900       2.82404800
C       -1.72923500       0.43245300       3.09377600
C       -2.95528700       0.73681600       2.51473500
H       -4.01038000       2.08968200       1.21393000
H       -3.82191200       0.12141400       2.71526200
H       -2.03066300       3.48685400       0.76171900
H        0.33863600       0.93625000       3.27181600
H       -1.63980000      -0.42434900       3.75039000
C        0.46385800       3.16033000       1.55439500
N        1.62606700       3.15352500       2.49854400
H        1.36139500       2.74830700       3.39294700
H        1.89676700       4.11043000       2.70879000
H        0.14170300       4.18918500       1.40031700
H        0.81286500       2.79229400       0.58863700
Cu       3.13697400       2.20818300       1.70772500
18
Properties=species:S:1:pos:R:3 energy=-1967.185024986938 pbc="F F F"
C       -3.06147500       1.84043700       1.67154500
C       -1.94819200       2.62623500       1.41572800
C       -0.70927800       2.31881300       1.97956700
C       -0.60818900       1.21430300       2.82431100
C       -1.72944400       0.43220600       3.09395700
C       -2.95510300       0.73713200       2.51443600
H       -4.00995100       2.08982000       1.21349100
H       -3.82197200       0.12147300       2.71492000
H       -2.02999900       3.48682100       0.76185800
H        0.33860200       0.93608000       3.27228400
H       -1.64001200      -0.42446200       3.75028000
C        0.46400800       3.16015600       1.55475800