
                                 *****************
                                 * O   R   C   A *
                                 *****************

                                            #,                                       
                                            ###                                      
                                            ####                                     
                                            #####                                    
                                            ######                                   
                                           ########,                                 
                                     ,,################,,,,,                         
                               ,,#################################,,                 
                          ,,##########################################,,             
                       ,#########################################, ''#####,          
                    ,#############################################,,   '####,        
                  ,##################################################,,,,####,       
                ,###########''''           ''''###############################       
              ,#####''   ,,,,##########,,,,          '''####'''          '####       
            ,##' ,,,,###########################,,,                        '##       
           ' ,,###''''                  '''############,,,                           
         ,,##''                                '''############,,,,        ,,,,,,###''
      ,#''                                            '''#######################'''  
     '                                                          ''''####''''         
             ,#######,   #######,   ,#######,      ##                                
            ,#'     '#,  ##    ##  ,#'     '#,    #''#        ######   ,####,        
            ##       ##  ##   ,#'  ##            #'  '#       #        #'  '#        
            ##       ##  #######   ##           ,######,      #####,   #    #        
            '#,     ,#'  ##    ##  '#,     ,#' ,#      #,         ##   #,  ,#        
             '#######'   ##     ##  '#######'  #'      '#     #####' # '####'        



                  #######################################################
                  #                        -***-                        #
                  #          Department of theory and spectroscopy      #
                  #    Directorship and core code : Frank Neese         #
                  #        Max Planck Institute fuer Kohlenforschung    #
                  #                Kaiser Wilhelm Platz 1               #
                  #                 D-45470 Muelheim/Ruhr               #
                  #                      Germany                        #
                  #                                                     #
                  #                  All rights reserved                #
                  #                        -***-                        #
                  #######################################################


                         Program Version 5.0.3 -  RELEASE  -


 With contributions from (in alphabetic order):
   Daniel Aravena         : Magnetic Suceptibility
   Michael Atanasov       : Ab Initio Ligand Field Theory (pilot matlab implementation)
   Alexander A. Auer      : GIAO ZORA, VPT2 properties, NMR spectrum
   Ute Becker             : Parallelization
   Giovanni Bistoni       : ED, misc. LED, open-shell LED, HFLD
   Martin Brehm           : Molecular dynamics
   Dmytro Bykov           : SCF Hessian
   Vijay G. Chilkuri      : MRCI spin determinant printing, contributions to CSF-ICE
   Dipayan Datta          : RHF DLPNO-CCSD density
   Achintya Kumar Dutta   : EOM-CC, STEOM-CC
   Dmitry Ganyushin       : Spin-Orbit,Spin-Spin,Magnetic field MRCI
   Miquel Garcia          : C-PCM and meta-GGA Hessian, CC/C-PCM, Gaussian charge scheme
   Yang Guo               : DLPNO-NEVPT2, F12-NEVPT2, CIM, IAO-localization
   Andreas Hansen         : Spin unrestricted coupled pair/coupled cluster methods
   Benjamin Helmich-Paris : MC-RPA, TRAH-SCF, COSX integrals
   Lee Huntington         : MR-EOM, pCC
   Robert Izsak           : Overlap fitted RIJCOSX, COSX-SCS-MP3, EOM
   Marcus Kettner         : VPT2
   Christian Kollmar      : KDIIS, OOCD, Brueckner-CCSD(T), CCSD density, CASPT2, CASPT2-K
   Simone Kossmann        : Meta GGA functionals, TD-DFT gradient, OOMP2, MP2 Hessian
   Martin Krupicka        : Initial AUTO-CI
   Lucas Lang             : DCDCAS
   Marvin Lechner         : AUTO-CI (C++ implementation), FIC-MRCC
   Dagmar Lenk            : GEPOL surface, SMD
   Dimitrios Liakos       : Extrapolation schemes; Compound Job, initial MDCI parallelization
   Dimitrios Manganas     : Further ROCIS development; embedding schemes
   Dimitrios Pantazis     : SARC Basis sets
   Anastasios Papadopoulos: AUTO-CI, single reference methods and gradients
   Taras Petrenko         : DFT Hessian,TD-DFT gradient, ASA, ECA, R-Raman, ABS, FL, XAS/XES, NRVS
   Peter Pinski           : DLPNO-MP2, DLPNO-MP2 Gradient
   Christoph Reimann      : Effective Core Potentials
   Marius Retegan         : Local ZFS, SOC
   Christoph Riplinger    : Optimizer, TS searches, QM/MM, DLPNO-CCSD(T), (RO)-DLPNO pert. Triples
   Tobias Risthaus        : Range-separated hybrids, TD-DFT gradient, RPA, STAB
   Michael Roemelt        : Original ROCIS implementation
   Masaaki Saitow         : Open-shell DLPNO-CCSD energy and density
   Barbara Sandhoefer     : DKH picture change effects
   Avijit Sen             : IP-ROCIS
   Kantharuban Sivalingam : CASSCF convergence, NEVPT2, FIC-MRCI
   Bernardo de Souza      : ESD, SOC TD-DFT
   Georgi Stoychev        : AutoAux, RI-MP2 NMR, DLPNO-MP2 response
   Willem Van den Heuvel  : Paramagnetic NMR
   Boris Wezisla          : Elementary symmetry handling
   Frank Wennmohs         : Technical directorship


 We gratefully acknowledge several colleagues who have allowed us to
 interface, adapt or use parts of their codes:
   Stefan Grimme, W. Hujo, H. Kruse, P. Pracht,  : VdW corrections, initial TS optimization,
                  C. Bannwarth, S. Ehlert          DFT functionals, gCP, sTDA/sTD-DF
   Ed Valeev, F. Pavosevic, A. Kumar             : LibInt (2-el integral package), F12 methods
   Garnet Chan, S. Sharma, J. Yang, R. Olivares  : DMRG
   Ulf Ekstrom                                   : XCFun DFT Library
   Mihaly Kallay                                 : mrcc  (arbitrary order and MRCC methods)
   Jiri Pittner, Ondrej Demel                    : Mk-CCSD
   Frank Weinhold                                : gennbo (NPA and NBO analysis)
   Christopher J. Cramer and Donald G. Truhlar   : smd solvation model
   Lars Goerigk                                  : TD-DFT with DH, B97 family of functionals
   V. Asgeirsson, H. Jonsson                     : NEB implementation
   FAccTs GmbH                                   : IRC, NEB, NEB-TS, DLPNO-Multilevel, CI-OPT
                                                   MM, QMMM, 2- and 3-layer-ONIOM, Crystal-QMMM,
                                                   LR-CPCM, SF, NACMEs, symmetry and pop. for TD-DFT,
                                                   nearIR, NL-DFT gradient (VV10), updates on ESD,
                                                   ML-optimized integration grids
   S Lehtola, MJT Oliveira, MAL Marques          : LibXC Library
   Liviu Ungur et al                             : ANISO software


 Your calculation uses the libint2 library for the computation of 2-el integrals
 For citations please refer to: http://libint.valeyev.net

 Your ORCA version has been built with support for libXC version: 5.1.0
 For citations please refer to: https://tddft.org/programs/libxc/

 This ORCA versions uses:
   CBLAS   interface :  Fast vector & matrix operations
   LAPACKE interface :  Fast linear algebra routines
   SCALAPACK package :  Parallel linear algebra routines
   Shared memory     :  Shared parallel matrices
   BLAS/LAPACK       :  OpenBLAS 0.3.15  USE64BITINT DYNAMIC_ARCH NO_AFFINITY Haswell SINGLE_THREADED
        Core in use  :  Haswell
   Copyright (c) 2011-2014, The OpenBLAS Project




***************************************
The coordinates will be read from file: TS.xyz
***************************************


Your calculation utilizes the atom-pairwise dispersion correction
with the Becke-Johnson damping scheme (D3BJ)
Cite in your paper:
S.Grimme, S.Ehrlich, L.Goerigk, J Comput Chem, (2011), 32, 1456–1465 
S.Grimme, J.Antony, S.Ehrlich and H.Krieg, J.Chem.Phys., 132, (2010), 154104 
   

================================================================================

----- Orbital basis set information -----
Your calculation utilizes the basis: def2-TZVP
   F. Weigend and R. Ahlrichs, Phys. Chem. Chem. Phys. 7, 3297 (2005).

----- AuxJ basis set information -----
Your calculation utilizes the auxiliary basis: def2/J
   F. Weigend, Phys. Chem. Chem. Phys. 8, 1057 (2006).

================================================================================
                                        WARNINGS
                       Please study these warnings very carefully!
================================================================================

WARNING: SinglePoint found together with IRC
         Switching on EnGrad - energy plus gradient calculation

INFO   : the flag for use of the SHARK integral package has been found!

================================================================================
                                       INPUT FILE
================================================================================
NAME = orca.inp
|  1> !B3LYP DEF2-TZVP D3BJ
|  2> !IRC TightSCF defgrid2
|  3> %SCF
|  4>     MaxIter 2000       # Here setting MaxIter to a very high number. Intended for systems that require sometimes 1000 iterations before converging (very rare).
|  5>     DIISMaxEq 5        # Default value is 5. A value of 15-40 necessary for difficult systems.
|  6>     directresetfreq 15 # Default value is 15. A value of 1 (very expensive) is sometimes required. A value between 1 and 15 may be more cost-effective.
|  7> END
|  8> %CPCM EPSILON 6.02 REFRAC 1.3723 END
|  9> %PAL NPROCS 32 END
| 10> %maxcore 2000
| 11> %IRC
| 12>     MaxIter 2000
| 13>     InitHess calc_numfreq
| 14>     Direction both
| 15>     PrintLevel 1
| 16> end
| 17> * xyzfile 1 1 TS.xyz
| 18> 
| 19> 
| 20>                          ****END OF INPUT****
================================================================================

                     *******************************
                     * Energy+Gradient Calculation *
                     *******************************

---------------------------------
CARTESIAN COORDINATES (ANGSTROEM)
---------------------------------
  C     -2.978099    1.864266    1.663674
  C     -1.842843    2.624707    1.416967
  C     -0.626720    2.285153    2.013300
  C     -0.556876    1.165246    2.846548
  C     -1.692502    0.407088    3.089772
  C     -2.905561    0.755527    2.500543
  H     -3.918772    2.138272    1.204228
  H     -3.789635    0.160995    2.690963
  H     -1.897469    3.488376    0.765620
  H      0.383932    0.867183    3.293897
  H     -1.631323   -0.459594    3.734883
  C      0.543437    3.146946    1.756961
  N      1.485187    3.338895    2.790733
  H      0.334671    4.047117    1.196286
  H      1.068264    2.380488    0.233290
  H      1.819560    4.283783    2.920591
  H      1.328226    2.838998    3.654826
  Cu     2.298983    2.301013    1.139959

----------------------------
CARTESIAN COORDINATES (A.U.)
----------------------------
  NO LB      ZA    FRAG     MASS         X           Y           Z
   0 C     6.0000    0    12.011   -5.627791    3.522952    3.143888
   1 C     6.0000    0    12.011   -3.482469    4.959977    2.677680
   2 C     6.0000    0    12.011   -1.184330    4.318313    3.804585
   3 C     6.0000    0    12.011   -1.052344    2.201996    5.379196
   4 C     6.0000    0    12.011   -3.198364    0.769285    5.838823
   5 C     6.0000    0    12.011   -5.490714    1.427739    4.725341
   6 H     1.0000    0     1.008   -7.405406    4.040749    2.275661
   7 H     1.0000    0     1.008   -7.161371    0.304237    5.085184
   8 H     1.0000    0     1.008   -3.585697    6.592075    1.446812
   9 H     1.0000    0     1.008    0.725527    1.638739    6.224563
  10 H     1.0000    0     1.008   -3.082753   -0.868507    7.057906
  11 C     6.0000    0    12.011    1.026948    5.946866    3.320176
  12 N     7.0000    0    14.007    2.806596    6.309598    5.273721
  13 H     1.0000    0     1.008    0.632436    7.647944    2.260652
  14 H     1.0000    0     1.008    2.018726    4.498470    0.440855
  15 H     1.0000    0     1.008    3.438470    8.095177    5.519117
  16 H     1.0000    0     1.008    2.509984    5.364929    6.906619
  17 Cu   29.0000    0    63.550    4.344448    4.348284    2.154210

--------------------------------
INTERNAL COORDINATES (ANGSTROEM)
--------------------------------
 C      0   0   0     0.000000000000     0.00000000     0.00000000
 C      1   0   0     1.388502537797     0.00000000     0.00000000
 C      2   1   0     1.396375262063   120.19964168     0.00000000
 C      3   2   1     1.397630295949   119.53639232     0.79315603
 C      4   3   2     1.386941568164   120.10927641   359.27134579
 C      1   2   3     1.391011405386   120.05245817   359.61526359
 H      1   2   3     1.082144822803   119.77615216   179.50920471
 H      6   1   2     1.082272698291   120.07395566   180.16473296
 H      2   1   3     1.083125973136   120.15341931   180.38598664
 H      4   3   2     1.083551218214   120.66028292   178.07774568
 H      5   4   3     1.082150316853   119.73908655   179.91986830
 C      3   2   1     1.475691918319   118.32057970   181.93488326
 N     12   3   2     1.411531139306   118.76655687   145.04435086
 H     12   3   2     1.080855771243   115.04417758     6.05884483
 H     12   3   2     1.784509398405    97.50988389   274.34089997
 H     13  12   3     1.010683803676   116.22920568   223.18975213
 H     13  12   3     1.010539257325   117.08690432     2.46402183
 Cu    15  12   3     1.530696739904    75.70113008   236.04300989

---------------------------
INTERNAL COORDINATES (A.U.)
---------------------------
 C      0   0   0     0.000000000000     0.00000000     0.00000000
 C      1   0   0     2.623889532690     0.00000000     0.00000000
 C      2   1   0     2.638766825482   120.19964168     0.00000000
 C      3   2   1     2.641138495816   119.53639232     0.79315603
 C      4   3   2     2.620939727582   120.10927641   359.27134579
 C      1   2   3     2.628630605340   120.05245817   359.61526359
 H      1   2   3     2.044957352338   119.77615216   179.50920471
 H      6   1   2     2.045199001990   120.07395566   180.16473296
 H      2   1   3     2.046811457764   120.15341931   180.38598664
 H      4   3   2     2.047615054501   120.66028292   178.07774568
 H      5   4   3     2.044967734588   119.73908655   179.91986830
 C      3   2   1     2.788653583665   118.32057970   181.93488326
 N     12   3   2     2.667407282789   118.76655687   145.04435086
 H     12   3   2     2.042521397917   115.04417758     6.05884483
 H     12   3   2     3.372234046395    97.50988389   274.34089997
 H     13  12   3     1.909915596937   116.22920568   223.18975213
 H     13  12   3     1.909642443921   117.08690432     2.46402183
 Cu    15  12   3     2.892597632505    75.70113008   236.04300989

---------------------
BASIS SET INFORMATION
---------------------
There are 4 groups of distinct atoms

 Group   1 Type C   : 11s6p2d1f contracted to 5s3p2d1f pattern {62111/411/11/1}
 Group   2 Type H   : 5s1p contracted to 3s1p pattern {311/1}
 Group   3 Type N   : 11s6p2d1f contracted to 5s3p2d1f pattern {62111/411/11/1}
 Group   4 Type Cu  : 17s11p7d1f contracted to 6s4p4d1f pattern {842111/6311/4111/1}

Atom   0C    basis set group =>   1
Atom   1C    basis set group =>   1
Atom   2C    basis set group =>   1
Atom   3C    basis set group =>   1
Atom   4C    basis set group =>   1
Atom   5C    basis set group =>   1
Atom   6H    basis set group =>   2
Atom   7H    basis set group =>   2
Atom   8H    basis set group =>   2
Atom   9H    basis set group =>   2
Atom  10H    basis set group =>   2
Atom  11C    basis set group =>   1
Atom  12N    basis set group =>   3
Atom  13H    basis set group =>   2
Atom  14H    basis set group =>   2
Atom  15H    basis set group =>   2
Atom  16H    basis set group =>   2
Atom  17Cu   basis set group =>   4
---------------------------------
AUXILIARY/J BASIS SET INFORMATION
---------------------------------
There are 4 groups of distinct atoms

 Group   1 Type C   : 12s5p4d2f1g contracted to 6s4p3d1f1g pattern {711111/2111/211/2/1}
 Group   2 Type H   : 5s2p1d contracted to 3s1p1d pattern {311/2/1}
 Group   3 Type N   : 12s5p4d2f1g contracted to 6s4p3d1f1g pattern {711111/2111/211/2/1}
 Group   4 Type Cu  : 19s5p5d3f3g contracted to 8s5p4d3f3g pattern {121111111/11111/2111/111/111}

Atom   0C    basis set group =>   1
Atom   1C    basis set group =>   1
Atom   2C    basis set group =>   1
Atom   3C    basis set group =>   1
Atom   4C    basis set group =>   1
Atom   5C    basis set group =>   1
Atom   6H    basis set group =>   2
Atom   7H    basis set group =>   2
Atom   8H    basis set group =>   2
Atom   9H    basis set group =>   2
Atom  10H    basis set group =>   2
Atom  11C    basis set group =>   1
Atom  12N    basis set group =>   3
Atom  13H    basis set group =>   2
Atom  14H    basis set group =>   2
Atom  15H    basis set group =>   2
Atom  16H    basis set group =>   2
Atom  17Cu   basis set group =>   4


           ************************************************************
           *        Program running with 32 parallel MPI-processes    *
           *              working on a common directory               *
           ************************************************************
------------------------------------------------------------------------------
                           ORCA GTO INTEGRAL CALCULATION
                           -- RI-GTO INTEGRALS CHOSEN --
------------------------------------------------------------------------------
------------------------------------------------------------------------------
                   ___                                                        
                  /   \      - P O W E R E D   B Y -                         
                 /     \                                                     
                 |  |  |   _    _      __       _____    __    __             
                 |  |  |  | |  | |    /  \     |  _  \  |  |  /  |          
                  \  \/   | |  | |   /    \    | | | |  |  | /  /          
                 / \  \   | |__| |  /  /\  \   | |_| |  |  |/  /          
                |  |  |   |  __  | /  /__\  \  |    /   |      \           
                |  |  |   | |  | | |   __   |  |    \   |  |\   \          
                \     /   | |  | | |  |  |  |  | |\  \  |  | \   \       
                 \___/    |_|  |_| |__|  |__|  |_| \__\ |__|  \__/        
                                                                              
                      - O R C A' S   B I G   F R I E N D -                    
                                      &                                       
                       - I N T E G R A L  F E E D E R -                       
                                                                              
 v1 FN, 2020, v2 2021                                                         
------------------------------------------------------------------------------


Reading SHARK input file orca.SHARKINP.tmp ... ok
----------------------
SHARK INTEGRAL PACKAGE
----------------------

Number of atoms                             ...     18
Number of basis functions                   ...    347
Number of shells                            ...    139
Maximum angular momentum                    ...      3
Integral batch strategy                     ... SHARK/LIBINT Hybrid
RI-J (if used) integral strategy            ... SPLIT-RIJ (Revised 2003 algorithm where possible)
Printlevel                                  ...      1
Contraction scheme used                     ... SEGMENTED contraction
Coulomb Range Separation                    ... NOT USED
Exchange Range Separation                   ... NOT USED
Finite Nucleus Model                        ... NOT USED
Auxiliary Coulomb fitting basis             ... AVAILABLE
   # of basis functions in Aux-J            ...    582
   # of shells in Aux-J                     ...    188
   Maximum angular momentum in Aux-J        ...      4
Auxiliary J/K fitting basis                 ... NOT available
Auxiliary Correlation fitting basis         ... NOT available
Auxiliary 'external' fitting basis          ... NOT available
Integral threshold                          ...     2.500000e-11
Primitive cut-off                           ...     2.500000e-12
Primitive pair pre-selection threshold      ...     2.500000e-12

Calculating pre-screening integrals         ... done (  0.1 sec) Dimension = 139
Organizing shell pair data                  ... done (  0.9 sec)
Shell pair information
Total number of shell pairs                 ...      9730
Shell pairs after pre-screening             ...      8627
Total number of primitive shell pairs       ...     31637
Primitive shell pairs kept                  ...     20230
          la=0 lb=0:   2310 shell pairs
          la=1 lb=0:   2400 shell pairs
          la=1 lb=1:    646 shell pairs
          la=2 lb=0:   1309 shell pairs
          la=2 lb=1:    687 shell pairs
          la=2 lb=2:    197 shell pairs
          la=3 lb=0:    571 shell pairs
          la=3 lb=1:    304 shell pairs
          la=3 lb=2:    163 shell pairs
          la=3 lb=3:     40 shell pairs

Calculating one electron integrals          ... done (  0.3 sec)
Calculating RI/J V-Matrix + Cholesky decomp.... done (  2.3 sec)
Calculating Nuclear repulsion               ... done (  0.0 sec) ENN=    610.984171625727 Eh

SHARK setup successfully completed in   5.9 seconds

Maximum memory used throughout the entire GTOINT-calculation: 25.5 MB


           ************************************************************
           *        Program running with 32 parallel MPI-processes    *
           *              working on a common directory               *
           ************************************************************
-------------------------------------------------------------------------------
                                 ORCA SCF
-------------------------------------------------------------------------------

------------
SCF SETTINGS
------------
Hamiltonian:
 Density Functional     Method          .... DFT(GTOs)
 Exchange Functional    Exchange        .... B88
   X-Alpha parameter    XAlpha          ....  0.666667
   Becke's b parameter  XBeta           ....  0.004200
 Correlation Functional Correlation     .... LYP
 LDA part of GGA corr.  LDAOpt          .... VWN-5
 Gradients option       PostSCFGGA      .... off
 Hybrid DFT is turned on
   Fraction HF Exchange ScalHFX         ....  0.200000
   Scaling of DF-GGA-X  ScalDFX         ....  0.720000
   Scaling of DF-GGA-C  ScalDFC         ....  0.810000
   Scaling of DF-LDA-C  ScalLDAC        ....  1.000000
   Perturbative correction              ....  0.000000
   Density functional embedding theory  .... OFF
   NL short-range parameter             ....  4.800000
 RI-approximation to the Coulomb term is turned on
   Number of AuxJ basis functions       .... 582
   RIJ-COSX (HFX calculated with COS-X)).... on


General Settings:
 Integral files         IntName         .... orca
 Hartree-Fock type      HFTyp           .... RHF
 Total Charge           Charge          ....    1
 Multiplicity           Mult            ....    1
 Number of Electrons    NEL             ....   86
 Basis Dimension        Dim             ....  347
 Nuclear Repulsion      ENuc            ....    610.9841716257 Eh

Convergence Acceleration:
 DIIS                   CNVDIIS         .... on
   Start iteration      DIISMaxIt       ....    12
   Startup error        DIISStart       ....  0.200000
   # of expansion vecs  DIISMaxEq       ....     5
   Bias factor          DIISBfac        ....   1.050
   Max. coefficient     DIISMaxC        ....  10.000
 Trust-Rad. Augm. Hess. CNVTRAH         .... auto
   Auto Start mean grad. ratio tolernc. ....  1.125000
   Auto Start start iteration           ....    20
   Auto Start num. interpolation iter.  ....    10
   Max. Number of Micro iterations      ....    16
   Max. Number of Macro iterations      .... Maxiter - #DIIS iter
   Number of Davidson start vectors     ....     2
   Converg. threshold I  (grad. norm)   ....   1.000e-05
   Converg. threshold II (energy diff.) ....   1.000e-08
   Grad. Scal. Fac. for Micro threshold ....   0.100
   Minimum threshold for Micro iter.    ....   0.010
   NR start threshold (gradient norm)   ....   0.001
   Initial trust radius                 ....   0.400
   Minimum AH scaling param. (alpha)    ....   1.000
   Maximum AH scaling param. (alpha)    .... 1000.000
   Orbital update algorithm             .... Taylor
   White noise on init. David. guess    .... on
   Maximum white noise                  ....   0.010
   Quad. conv. algorithm                .... NR
 SOSCF                  CNVSOSCF        .... off
 Level Shifting         CNVShift        .... on
   Level shift para.    LevelShift      ....    0.2500
   Turn off err/grad.   ShiftErr        ....    0.0010
 Zerner damping         CNVZerner       .... off
 Static damping         CNVDamp         .... on
   Fraction old density DampFac         ....    0.7000
   Max. Damping (<1)    DampMax         ....    0.9800
   Min. Damping (>=0)   DampMin         ....    0.0000
   Turn off err/grad.   DampErr         ....    0.1000
 Fernandez-Rico         CNVRico         .... off

SCF Procedure:
 Maximum # iterations   MaxIter         ....  2000
 SCF integral mode      SCFMode         .... Direct
   Integral package                     .... SHARK and LIBINT hybrid scheme
 Reset frequency        DirectResetFreq ....    15
 Integral Threshold     Thresh          ....  2.500e-11 Eh
 Primitive CutOff       TCut            ....  2.500e-12 Eh

Convergence Tolerance:
 Convergence Check Mode ConvCheckMode   .... Total+1el-Energy
 Convergence forced     ConvForced      .... 0
 Energy Change          TolE            ....  1.000e-08 Eh
 1-El. energy change                    ....  1.000e-05 Eh
 DIIS Error             TolErr          ....  5.000e-07


Diagonalization of the overlap matrix:
Smallest eigenvalue                        ... 8.518e-06
Time for diagonalization                   ...    0.078 sec
Threshold for overlap eigenvalues          ... 1.000e-08
Number of eigenvalues below threshold      ... 0
Time for construction of square roots      ...    0.527 sec
Total time needed                          ...    1.098 sec

Time for model grid setup =    1.791 sec

------------------------------
INITIAL GUESS: MODEL POTENTIAL
------------------------------
Loading Hartree-Fock densities                     ... done
Calculating cut-offs                               ... done
Initializing the effective Hamiltonian             ... done
Setting up the integral package (SHARK)            ... done
Starting the Coulomb interaction                   ... done (   2.9 sec)
Reading the grid                                   ... done
Mapping shells                                     ... done
Starting the XC term evaluation                    ... done (   0.3 sec)
  promolecular density results
     # of electrons  =     86.992120729
     EX              =   -111.091815005
     EC              =     -3.308393494
     EX+EC           =   -114.400208498
Transforming the Hamiltonian                       ... done (   1.5 sec)
Diagonalizing the Hamiltonian                      ... done (   1.2 sec)
Back transforming the eigenvectors                 ... done (   0.1 sec)
Now organizing SCF variables                       ... done
                      ------------------
                      INITIAL GUESS DONE (   8.5 sec)
                      ------------------
-------------------
DFT GRID GENERATION
-------------------

General Integration Accuracy     IntAcc      ... 4.388
Radial Grid Type                 RadialGrid  ... OptM3 with GC (2021)
Angular Grid (max. ang.)         AngularGrid ... 4 (Lebedev-302)
Angular grid pruning method      GridPruning ... 4 (adaptive)
Weight generation scheme         WeightScheme... Becke
Basis function cutoff            BFCut       ... 1.0000e-11
Integration weight cutoff        WCut        ... 1.0000e-14
Angular grids for H and He will be reduced by one unit
Partially contracted basis set               ... off
Rotationally invariant grid construction     ... off

Total number of grid points                  ...    88063
Total number of batches                      ...     1384
Average number of points per batch           ...       63
Average number of grid points per atom       ...     4892
Time for grid setup =    4.117 sec

--------------------
COSX GRID GENERATION
--------------------

GRIDX 1
-------
General Integration Accuracy     IntAcc      ... 3.816
Radial Grid Type                 RadialGrid  ... OptM3 with GC (2021)
Angular Grid (max. ang.)         AngularGrid ... 1 (Lebedev-50)
Angular grid pruning method      GridPruning ... 4 (adaptive)
Weight generation scheme         WeightScheme... Becke
Basis function cutoff            BFCut       ... 1.0000e-11
Integration weight cutoff        WCut        ... 1.0000e-14
Angular grids for H and He will be reduced by one unit
Partially contracted basis set               ... on
Rotationally invariant grid construction     ... off

Total number of grid points                  ...    11048
Total number of batches                      ...      178
Average number of points per batch           ...       62
Average number of grid points per atom       ...      614
UseSFitting                                  ... on

GRIDX 2
-------
General Integration Accuracy     IntAcc      ... 4.020
Radial Grid Type                 RadialGrid  ... OptM3 with GC (2021)
Angular Grid (max. ang.)         AngularGrid ... 2 (Lebedev-110)
Angular grid pruning method      GridPruning ... 4 (adaptive)
Weight generation scheme         WeightScheme... Becke
Basis function cutoff            BFCut       ... 1.0000e-11
Integration weight cutoff        WCut        ... 1.0000e-14
Angular grids for H and He will be reduced by one unit
Partially contracted basis set               ... on
Rotationally invariant grid construction     ... off

Total number of grid points                  ...    23735
Total number of batches                      ...      381
Average number of points per batch           ...       62
Average number of grid points per atom       ...     1319
UseSFitting                                  ... on

GRIDX 3
-------
General Integration Accuracy     IntAcc      ... 4.338
Radial Grid Type                 RadialGrid  ... OptM3 with GC (2021)
Angular Grid (max. ang.)         AngularGrid ... 3 (Lebedev-194)
Angular grid pruning method      GridPruning ... 4 (adaptive)
Weight generation scheme         WeightScheme... Becke
Basis function cutoff            BFCut       ... 1.0000e-11
Integration weight cutoff        WCut        ... 1.0000e-14
Angular grids for H and He will be reduced by one unit
Partially contracted basis set               ... on
Rotationally invariant grid construction     ... off

Total number of grid points                  ...    52227
Total number of batches                      ...      825
Average number of points per batch           ...       63
Average number of grid points per atom       ...     2902
UseSFitting                                  ... on

Time for X-Grid setup             =    8.715 sec


--------------------
CPCM SOLVATION MODEL
--------------------
CPCM parameters:
  Epsilon                                         ...       6.0200
  Refrac                                          ...       1.3723
  Rsolv                                           ...       1.3000
  Surface type                                    ... GAUSSIAN VDW
  Epsilon function type                           ...         CPCM
Radii:
 Radius for C  used is    3.8550 Bohr (=   2.0400 Ang.)
 Radius for H  used is    2.4944 Bohr (=   1.3200 Ang.)
 Radius for N  used is    3.5149 Bohr (=   1.8600 Ang.)
 Radius for Cu used is    3.1747 Bohr (=   1.6800 Ang.)
Calculating surface                               ...        done! (  0.0s)
GEPOL surface points                              ...         1020
GEPOL Volume                                      ...    1071.8341
GEPOL Surface-area                                ...     607.2162
Calculating surface distance matrix               ...        done! (  0.0s)
Performing Cholesky decomposition & store         ...        done! (  6.0s)
Overall time for CPCM initialization              ...                 6.0s
--------------
SCF ITERATIONS
--------------
ITER       Energy         Delta-E        Max-DP      RMS-DP      [F,P]     Damp
               ***  Starting incremental Fock matrix formation  ***
  0  -1966.8802727812   0.000000000000 0.03962363  0.00082764  0.2270635 0.7000
  1  -1966.9745913982  -0.094318616928 0.02544511  0.00061036  0.0998099 0.7000
                               ***Turning on DIIS***
  2  -1967.0134667034  -0.038875305256 0.06228338  0.00114884  0.0298992 0.0000
  3  -1967.0700928049  -0.056626101492 0.01727360  0.00039852  0.0562460 0.0000
  4  -1967.0853690429  -0.015276237954 0.00903385  0.00016651  0.0077713 0.0000
  5  -1967.0861101833  -0.000741140411 0.00512568  0.00006855  0.0055693 0.0000
  6  -1967.0861808217  -0.000070638398 0.00196900  0.00003833  0.0056098 0.0000
  7  -1967.0862061231  -0.000025301408 0.00129908  0.00001729  0.0030802 0.0000
  8  -1967.0862176185  -0.000011495363 0.00167262  0.00001407  0.0002932 0.0000
               *** Restarting incremental Fock matrix formation ***
                                   *** Resetting DIIS ***
  9  -1967.0862334674  -0.000015848903 0.00027903  0.00000911  0.0001345 0.0000
 10  -1967.0862333343   0.000000133099 0.00016774  0.00000275  0.0004313 0.0000
 11  -1967.0862335616  -0.000000227364 0.00008637  0.00000117  0.0002739 0.0000
 12  -1967.0862336136  -0.000000052002 0.00005855  0.00000106  0.0000928 0.0000
 13  -1967.0862336215  -0.000000007864 0.00005211  0.00000097  0.0000174 0.0000
 14  -1967.0862336144   0.000000007055 0.00006036  0.00000104  0.0000068 0.0000
 15  -1967.0862336117   0.000000002787 0.00008638  0.00000119  0.0000015 0.0000
                            ***DIIS convergence achieved***

               *****************************************************
               *                     SUCCESS                       *
               *           SCF CONVERGED AFTER  16 CYCLES          *
               *****************************************************

Old exchange energy                            =    -22.290709167 Eh
New exchange energy                            =    -22.290710765 Eh
Exchange energy change after final integration =     -0.000001599 Eh
Total energy after final integration           =  -1967.086235214 Eh
Final COS-X integration done in                =     3.005 sec

----------------
TOTAL SCF ENERGY
----------------

Total Energy       :        -1967.08623521 Eh          -53527.13773 eV

Components:
Nuclear Repulsion  :          610.98417163 Eh           16625.72455 eV
Electronic Energy  :        -2578.07040684 Eh          -70152.86227 eV
One Electron Energy:        -3925.73163533 Eh         -106824.58865 eV
Two Electron Energy:         1347.66122849 Eh           36671.72638 eV
Max COSX asymmetry :            0.00000178 Eh               0.00005 eV
CPCM Dielectric    :           -0.09517411 Eh              -2.58982 eV

Virial components:
Potential Energy   :        -3930.21014198 Eh         -106946.45502 eV
Kinetic Energy     :         1963.12390676 Eh           53419.31729 eV
Virial Ratio       :            2.00201838


DFT components:
N(Alpha)           :       43.000015001335 electrons
N(Beta)            :       43.000015001335 electrons
N(Total)           :       86.000030002671 electrons
E(X)               :      -88.849671742069 Eh       
E(C)               :       -3.857180525040 Eh       
E(XC)              :      -92.706852267110 Eh       
DFET-embed. en.    :        0.000000000000 Eh       
CPCM Solvation Model Properties:
Surface-charge          :           -1.03134780
Charge-correction       :            0.00420620 Eh               0.11446 eV
Free-energy (cav+disp)  :  This term is not implemented in the current solvation scheme

---------------
SCF CONVERGENCE
---------------

  Last Energy change         ...   -3.3713e-09  Tolerance :   1.0000e-08
  Last MAX-Density change    ...    0.0000e+00  Tolerance :   1.0000e-07
  Last RMS-Density change    ...    0.0000e+00  Tolerance :   5.0000e-09
  Last DIIS Error            ...    3.4261e-07  Tolerance :   5.0000e-07

             **** THE GBW FILE WAS UPDATED (orca.gbw) ****
             **** DENSITY orca.scfp WAS UPDATED ****
             **** ENERGY FILE WAS UPDATED (orca.en.tmp) ****
             **** THE GBW FILE WAS UPDATED (orca.gbw) ****
             **** DENSITY orca.scfp WAS UPDATED ****
----------------
ORBITAL ENERGIES
----------------

  NO   OCC          E(Eh)            E(eV) 
   0   2.0000    -323.068742     -8791.1474 
   1   2.0000     -38.864313     -1057.5517 
   2   2.0000     -34.069190      -927.0698 
   3   2.0000     -34.068788      -927.0588 
   4   2.0000     -34.068257      -927.0444 
   5   2.0000     -14.394429      -391.6923 
   6   2.0000     -10.305285      -280.4211 
   7   2.0000     -10.224143      -278.2131 
   8   2.0000     -10.208652      -277.7915 
   9   2.0000     -10.207286      -277.7544 
  10   2.0000     -10.202705      -277.6297 
  11   2.0000     -10.202104      -277.6134 
  12   2.0000     -10.201174      -277.5880 
  13   2.0000      -4.354688      -118.4971 
  14   2.0000      -2.853364       -77.6440 
  15   2.0000      -2.849220       -77.5312 
  16   2.0000      -2.842499       -77.3483 
  17   2.0000      -0.984140       -26.7798 
  18   2.0000      -0.892058       -24.2741 
  19   2.0000      -0.802863       -21.8470 
  20   2.0000      -0.779938       -21.2232 
  21   2.0000      -0.714317       -19.4375 
  22   2.0000      -0.644343       -17.5335 
  23   2.0000      -0.627905       -17.0862 
  24   2.0000      -0.585580       -15.9344 
  25   2.0000      -0.559797       -15.2328 
  26   2.0000      -0.519780       -14.1439 
  27   2.0000      -0.491364       -13.3707 
  28   2.0000      -0.478312       -13.0155 
  29   2.0000      -0.471645       -12.8341 
  30   2.0000      -0.452234       -12.3059 
  31   2.0000      -0.445804       -12.1309 
  32   2.0000      -0.398734       -10.8501 
  33   2.0000      -0.393532       -10.7086 
  34   2.0000      -0.379695       -10.3320 
  35   2.0000      -0.373103       -10.1526 
  36   2.0000      -0.347425        -9.4539 
  37   2.0000      -0.338377        -9.2077 
  38   2.0000      -0.335665        -9.1339 
  39   2.0000      -0.327706        -8.9173 
  40   2.0000      -0.293127        -7.9764 
  41   2.0000      -0.288854        -7.8601 
  42   2.0000      -0.264342        -7.1931 
  43   0.0000      -0.115961        -3.1554 
  44   0.0000      -0.053469        -1.4550 
  45   0.0000      -0.044163        -1.2017 
  46   0.0000      -0.025683        -0.6989 
  47   0.0000       0.019704         0.5362 
  48   0.0000       0.023842         0.6488 
  49   0.0000       0.042414         1.1541 
  50   0.0000       0.047887         1.3031 
  51   0.0000       0.073240         1.9930 
  52   0.0000       0.077041         2.0964 
  53   0.0000       0.087516         2.3814 
  54   0.0000       0.095342         2.5944 
  55   0.0000       0.102570         2.7911 
  56   0.0000       0.104716         2.8495 
  57   0.0000       0.110877         3.0171 
  58   0.0000       0.119193         3.2434 
  59   0.0000       0.141081         3.8390 
  60   0.0000       0.152005         4.1363 
  61   0.0000       0.166882         4.5411 
  62   0.0000       0.175471         4.7748 
  63   0.0000       0.180019         4.8986 
  64   0.0000       0.183516         4.9937 
  65   0.0000       0.194394         5.2897 
  66   0.0000       0.204626         5.5681 
  67   0.0000       0.211420         5.7530 
  68   0.0000       0.215174         5.8552 
  69   0.0000       0.216893         5.9020 
  70   0.0000       0.233035         6.3412 
  71   0.0000       0.234329         6.3764 
  72   0.0000       0.249074         6.7777 
  73   0.0000       0.253051         6.8859 
  74   0.0000       0.266534         7.2527 
  75   0.0000       0.276633         7.5276 
  76   0.0000       0.290332         7.9003 
  77   0.0000       0.303905         8.2697 
  78   0.0000       0.307093         8.3564 
  79   0.0000       0.321579         8.7506 
  80   0.0000       0.336841         9.1659 
  81   0.0000       0.338233         9.2038 
  82   0.0000       0.349725         9.5165 
  83   0.0000       0.355105         9.6629 
  84   0.0000       0.360554         9.8112 
  85   0.0000       0.367705        10.0058 
  86   0.0000       0.388020        10.5586 
  87   0.0000       0.394087        10.7236 
  88   0.0000       0.400575        10.9002 
  89   0.0000       0.411064        11.1856 
  90   0.0000       0.418487        11.3876 
  91   0.0000       0.431934        11.7535 
  92   0.0000       0.447792        12.1850 
  93   0.0000       0.449812        12.2400 
  94   0.0000       0.453597        12.3430 
  95   0.0000       0.467446        12.7198 
  96   0.0000       0.472811        12.8658 
  97   0.0000       0.477223        12.9859 
  98   0.0000       0.478757        13.0276 
  99   0.0000       0.495697        13.4886 
 100   0.0000       0.504848        13.7376 
 101   0.0000       0.516426        14.0527 
 102   0.0000       0.536233        14.5917 
 103   0.0000       0.557109        15.1597 
 104   0.0000       0.568396        15.4668 
 105   0.0000       0.582631        15.8542 
 106   0.0000       0.606407        16.5012 
 107   0.0000       0.630333        17.1522 
 108   0.0000       0.639913        17.4129 
 109   0.0000       0.652672        17.7601 
 110   0.0000       0.665874        18.1194 
 111   0.0000       0.672520        18.3002 
 112   0.0000       0.698951        19.0194 
 113   0.0000       0.714468        19.4417 
 114   0.0000       0.729606        19.8536 
 115   0.0000       0.737883        20.0788 
 116   0.0000       0.763810        20.7843 
 117   0.0000       0.785759        21.3816 
 118   0.0000       0.802738        21.8436 
 119   0.0000       0.820182        22.3183 
 120   0.0000       0.829246        22.5649 
 121   0.0000       0.852710        23.2034 
 122   0.0000       0.860641        23.4192 
 123   0.0000       0.884950        24.0807 
 124   0.0000       0.892499        24.2861 
 125   0.0000       0.905735        24.6463 
 126   0.0000       0.923423        25.1276 
 127   0.0000       0.947982        25.7959 
 128   0.0000       0.969520        26.3820 
 129   0.0000       0.975981        26.5578 
 130   0.0000       0.988864        26.9083 
 131   0.0000       1.003541        27.3077 
 132   0.0000       1.015171        27.6242 
 133   0.0000       1.030640        28.0452 
 134   0.0000       1.063947        28.9515 
 135   0.0000       1.082283        29.4504 
 136   0.0000       1.119392        30.4602 
 137   0.0000       1.137661        30.9573 
 138   0.0000       1.156743        31.4766 
 139   0.0000       1.170094        31.8399 
 140   0.0000       1.183850        32.2142 
 141   0.0000       1.189958        32.3804 
 142   0.0000       1.208594        32.8875 
 143   0.0000       1.214332        33.0437 
 144   0.0000       1.221893        33.2494 
 145   0.0000       1.244184        33.8560 
 146   0.0000       1.265561        34.4377 
 147   0.0000       1.280182        34.8355 
 148   0.0000       1.313284        35.7363 
 149   0.0000       1.321738        35.9663 
 150   0.0000       1.343478        36.5579 
 151   0.0000       1.371878        37.3307 
 152   0.0000       1.393762        37.9262 
 153   0.0000       1.409593        38.3570 
 154   0.0000       1.427253        38.8375 
 155   0.0000       1.440122        39.1877 
 156   0.0000       1.449890        39.4535 
 157   0.0000       1.458618        39.6910 
 158   0.0000       1.468295        39.9543 
 159   0.0000       1.479705        40.2648 
 160   0.0000       1.522364        41.4256 
 161   0.0000       1.538220        41.8571 
 162   0.0000       1.550416        42.1890 
 163   0.0000       1.570835        42.7446 
 164   0.0000       1.592685        43.3392 
 165   0.0000       1.600003        43.5383 
 166   0.0000       1.620691        44.1013 
 167   0.0000       1.652314        44.9617 
 168   0.0000       1.655061        45.0365 
 169   0.0000       1.665938        45.3325 
 170   0.0000       1.671762        45.4909 
 171   0.0000       1.693576        46.0845 
 172   0.0000       1.694689        46.1148 
 173   0.0000       1.717230        46.7282 
 174   0.0000       1.740678        47.3663 
 175   0.0000       1.752368        47.6844 
 176   0.0000       1.766503        48.0690 
 177   0.0000       1.819443        49.5096 
 178   0.0000       1.868206        50.8365 
 179   0.0000       1.876572        51.0641 
 180   0.0000       1.884105        51.2691 
 181   0.0000       1.915187        52.1149 
 182   0.0000       1.927306        52.4447 
 183   0.0000       1.941064        52.8190 
 184   0.0000       1.959992        53.3341 
 185   0.0000       1.971276        53.6412 
 186   0.0000       1.994481        54.2726 
 187   0.0000       2.040944        55.5369 
 188   0.0000       2.054365        55.9021 
 189   0.0000       2.057580        55.9896 
 190   0.0000       2.089180        56.8495 
 191   0.0000       2.113004        57.4978 
 192   0.0000       2.126069        57.8533 
 193   0.0000       2.175135        59.1884 
 194   0.0000       2.176576        59.2276 
 195   0.0000       2.186282        59.4918 
 196   0.0000       2.203453        59.9590 
 197   0.0000       2.233336        60.7722 
 198   0.0000       2.261951        61.5508 
 199   0.0000       2.286682        62.2238 
 200   0.0000       2.329278        63.3829 
 201   0.0000       2.351401        63.9849 
 202   0.0000       2.360625        64.2359 
 203   0.0000       2.395027        65.1720 
 204   0.0000       2.406293        65.4786 
 205   0.0000       2.436554        66.3020 
 206   0.0000       2.446271        66.5664 
 207   0.0000       2.455285        66.8117 
 208   0.0000       2.508123        68.2495 
 209   0.0000       2.523841        68.6772 
 210   0.0000       2.539183        69.0947 
 211   0.0000       2.550768        69.4099 
 212   0.0000       2.570684        69.9519 
 213   0.0000       2.586986        70.3955 
 214   0.0000       2.588684        70.4417 
 215   0.0000       2.600557        70.7648 
 216   0.0000       2.629729        71.5586 
 217   0.0000       2.645209        71.9798 
 218   0.0000       2.657243        72.3073 
 219   0.0000       2.666435        72.5574 
 220   0.0000       2.677751        72.8653 
 221   0.0000       2.688843        73.1672 
 222   0.0000       2.709835        73.7384 
 223   0.0000       2.729009        74.2601 
 224   0.0000       2.741168        74.5910 
 225   0.0000       2.746796        74.7441 
 226   0.0000       2.755547        74.9822 
 227   0.0000       2.762560        75.1731 
 228   0.0000       2.801154        76.2233 
 229   0.0000       2.806216        76.3610 
 230   0.0000       2.820053        76.7376 
 231   0.0000       2.836323        77.1803 
 232   0.0000       2.844548        77.4041 
 233   0.0000       2.877613        78.3038 
 234   0.0000       2.894600        78.7661 
 235   0.0000       2.909675        79.1763 
 236   0.0000       2.940104        80.0043 
 237   0.0000       2.946591        80.1808 
 238   0.0000       2.988210        81.3133 
 239   0.0000       3.012946        81.9864 
 240   0.0000       3.019517        82.1652 
 241   0.0000       3.046559        82.9011 
 242   0.0000       3.072856        83.6167 
 243   0.0000       3.101832        84.4051 
 244   0.0000       3.112265        84.6890 
 245   0.0000       3.120910        84.9243 
 246   0.0000       3.131081        85.2010 
 247   0.0000       3.143876        85.5492 
 248   0.0000       3.157132        85.9099 
 249   0.0000       3.158664        85.9516 
 250   0.0000       3.178750        86.4982 
 251   0.0000       3.201401        87.1146 
 252   0.0000       3.223634        87.7195 
 253   0.0000       3.238000        88.1105 
 254   0.0000       3.258664        88.6728 
 255   0.0000       3.272333        89.0447 
 256   0.0000       3.292865        89.6034 
 257   0.0000       3.294414        89.6456 
 258   0.0000       3.320963        90.3680 
 259   0.0000       3.336042        90.7783 
 260   0.0000       3.338478        90.8446 
 261   0.0000       3.357533        91.3631 
 262   0.0000       3.362922        91.5098 
 263   0.0000       3.387169        92.1695 
 264   0.0000       3.404567        92.6430 
 265   0.0000       3.430614        93.3518 
 266   0.0000       3.443599        93.7051 
 267   0.0000       3.448767        93.8457 
 268   0.0000       3.487759        94.9068 
 269   0.0000       3.499840        95.2355 
 270   0.0000       3.509239        95.4913 
 271   0.0000       3.535582        96.2081 
 272   0.0000       3.560601        96.8889 
 273   0.0000       3.603669        98.0608 
 274   0.0000       3.630111        98.7804 
 275   0.0000       3.647495        99.2534 
 276   0.0000       3.655386        99.4681 
 277   0.0000       3.664246        99.7092 
 278   0.0000       3.699691       100.6737 
 279   0.0000       3.730566       101.5139 
 280   0.0000       3.753134       102.1280 
 281   0.0000       3.760262       102.3219 
 282   0.0000       3.780647       102.8766 
 283   0.0000       3.816030       103.8394 
 284   0.0000       3.829012       104.1927 
 285   0.0000       3.865785       105.1933 
 286   0.0000       3.893434       105.9457 
 287   0.0000       3.918972       106.6407 
 288   0.0000       3.939336       107.1948 
 289   0.0000       3.993367       108.6650 
 290   0.0000       4.029002       109.6347 
 291   0.0000       4.076770       110.9345 
 292   0.0000       4.101396       111.6047 
 293   0.0000       4.147467       112.8583 
 294   0.0000       4.151030       112.9553 
 295   0.0000       4.178583       113.7050 
 296   0.0000       4.187052       113.9355 
 297   0.0000       4.198991       114.2604 
 298   0.0000       4.203223       114.3755 
 299   0.0000       4.221620       114.8761 
 300   0.0000       4.241739       115.4236 
 301   0.0000       4.280580       116.4805 
 302   0.0000       4.304589       117.1338 
 303   0.0000       4.330715       117.8448 
 304   0.0000       4.407091       119.9230 
 305   0.0000       4.429922       120.5443 
 306   0.0000       4.498877       122.4207 
 307   0.0000       4.547846       123.7532 
 308   0.0000       4.615058       125.5821 
 309   0.0000       4.643744       126.3627 
 310   0.0000       4.652316       126.5959 
 311   0.0000       4.679836       127.3448 
 312   0.0000       4.703961       128.0013 
 313   0.0000       4.724235       128.5530 
 314   0.0000       4.818090       131.1069 
 315   0.0000       4.845894       131.8635 
 316   0.0000       4.875246       132.6622 
 317   0.0000       4.885855       132.9509 
 318   0.0000       4.972938       135.3205 
 319   0.0000       5.045628       137.2985 
 320   0.0000       5.056448       137.5929 
 321   0.0000       5.119030       139.2959 
 322   0.0000       5.171452       140.7224 
 323   0.0000       5.177775       140.8944 
 324   0.0000       5.229883       142.3123 
 325   0.0000       5.275674       143.5584 
 326   0.0000       5.330003       145.0367 
 327   0.0000       5.383223       146.4849 
 328   0.0000       5.419258       147.4655 
 329   0.0000       5.438375       147.9857 
 330   0.0000       5.654907       153.8778 
 331   0.0000       5.725287       155.7930 
 332   0.0000       5.735630       156.0744 
 333   0.0000       5.747264       156.3910 
 334   0.0000       5.763102       156.8220 
 335   0.0000       5.781486       157.3222 
 336   0.0000       5.819839       158.3659 
 337   0.0000       5.867434       159.6610 
 338   0.0000       5.934467       161.4850 
 339   0.0000      21.979407       598.0901 
 340   0.0000      22.466101       611.3337 
 341   0.0000      22.572339       614.2246 
 342   0.0000      22.576428       614.3358 
 343   0.0000      22.687603       617.3611 
 344   0.0000      22.766224       619.5005 
 345   0.0000      23.175710       630.6431 
 346   0.0000      31.882345       867.5627 

                    ********************************
                    * MULLIKEN POPULATION ANALYSIS *
                    ********************************

-----------------------
MULLIKEN ATOMIC CHARGES
-----------------------
   0 C :   -0.112862
   1 C :   -0.205948
   2 C :    0.082996
   3 C :   -0.207400
   4 C :   -0.139550
   5 C :   -0.123951
   6 H :    0.149605
   7 H :    0.150950
   8 H :    0.148875
   9 H :    0.152492
  10 H :    0.148585
  11 C :    0.194818
  12 N :   -0.444637
  13 H :    0.199547
  14 H :   -0.092256
  15 H :    0.295240
  16 H :    0.291738
  17 Cu:    0.511759
Sum of atomic charges:    1.0000000

--------------------------------
MULLIKEN REDUCED ORBITAL CHARGES
--------------------------------
  0 C s       :     3.207289  s :     3.207289
      pz      :     0.943086  p :     2.817770
      px      :     0.954430
      py      :     0.920254
      dz2     :     0.012677  d :     0.080512
      dxz     :     0.016262
      dyz     :     0.011846
      dx2y2   :     0.021875
      dxy     :     0.017850
      f0      :     0.000784  f :     0.007291
      f+1     :     0.000366
      f-1     :     0.001407
      f+2     :     0.000904
      f-2     :     0.001443
      f+3     :     0.001566
      f-3     :     0.000820
  1 C s       :     3.265588  s :     3.265588
      pz      :     0.977586  p :     2.852333
      px      :     0.894284
      py      :     0.980463
      dz2     :     0.007840  d :     0.080638
      dxz     :     0.019962
      dyz     :     0.011516
      dx2y2   :     0.023327
      dxy     :     0.017993
      f0      :     0.000595  f :     0.007389
      f+1     :     0.001209
      f-1     :     0.000643
      f+2     :     0.001150
      f-2     :     0.001138
      f+3     :     0.001576
      f-3     :     0.001079
  2 C s       :     3.236160  s :     3.236160
      pz      :     0.961172  p :     2.547189
      px      :     0.758307
      py      :     0.827711
      dz2     :     0.022701  d :     0.123555
      dxz     :     0.022067
      dyz     :     0.015600
      dx2y2   :     0.034414
      dxy     :     0.028773
      f0      :     0.000781  f :     0.010099
      f+1     :     0.001324
      f-1     :     0.001491
      f+2     :     0.001137
      f-2     :     0.001860
      f+3     :     0.001896
      f-3     :     0.001610
  3 C s       :     3.263329  s :     3.263329
      pz      :     0.966223  p :     2.854371
      px      :     0.990661
      py      :     0.897487
      dz2     :     0.013420  d :     0.082307
      dxz     :     0.016703
      dyz     :     0.012273
      dx2y2   :     0.024511
      dxy     :     0.015400
      f0      :     0.000816  f :     0.007393
      f+1     :     0.000344
      f-1     :     0.001416
      f+2     :     0.000919
      f-2     :     0.001477
      f+3     :     0.001575
      f-3     :     0.000845
  4 C s       :     3.226001  s :     3.226001
      pz      :     0.945860  p :     2.824884
      px      :     0.900437
      py      :     0.978587
      dz2     :     0.008636  d :     0.081323
      dxz     :     0.020014
      dyz     :     0.010870
      dx2y2   :     0.023868
      dxy     :     0.017935
      f0      :     0.000612  f :     0.007342
      f+1     :     0.001157
      f-1     :     0.000659
      f+2     :     0.001109
      f-2     :     0.001203
      f+3     :     0.001591
      f-3     :     0.001010
  5 C s       :     3.221840  s :     3.221840
      pz      :     0.923322  p :     2.814299
      px      :     0.960169
      py      :     0.930808
      dz2     :     0.017044  d :     0.080602
      dxz     :     0.014711
      dyz     :     0.010330
      dx2y2   :     0.014906
      dxy     :     0.023610
      f0      :     0.000439  f :     0.007211
      f+1     :     0.001030
      f-1     :     0.001357
      f+2     :     0.000948
      f-2     :     0.001235
      f+3     :     0.001001
      f-3     :     0.001203
  6 H s       :     0.828075  s :     0.828075
      pz      :     0.006102  p :     0.022320
      px      :     0.011683
      py      :     0.004534
  7 H s       :     0.826815  s :     0.826815
      pz      :     0.004463  p :     0.022235
      px      :     0.010721
      py      :     0.007051
  8 H s       :     0.828782  s :     0.828782
      pz      :     0.008047  p :     0.022342
      px      :     0.003642
      py      :     0.010653
  9 H s       :     0.825184  s :     0.825184
      pz      :     0.006118  p :     0.022325
      px      :     0.011283
      py      :     0.004924
 10 H s       :     0.829113  s :     0.829113
      pz      :     0.007971  p :     0.022302
      px      :     0.003585
      py      :     0.010746
 11 C s       :     3.033672  s :     3.033672
      pz      :     0.839348  p :     2.609852
      px      :     0.838343
      py      :     0.932161
      dz2     :     0.026533  d :     0.151165
      dxz     :     0.035077
      dyz     :     0.029581
      dx2y2   :     0.034154
      dxy     :     0.025819
      f0      :     0.001543  f :     0.010493
      f+1     :     0.001861
      f-1     :     0.000686
      f+2     :     0.001890
      f-2     :     0.001874
      f+3     :     0.001527
      f-3     :     0.001113
 12 N s       :     3.495160  s :     3.495160
      pz      :     1.155074  p :     3.911847
      px      :     1.454154
      py      :     1.302619
      dz2     :     0.008406  d :     0.034742
      dxz     :     0.006008
      dyz     :     0.007197
      dx2y2   :     0.006957
      dxy     :     0.006174
      f0      :     0.000281  f :     0.002888
      f+1     :     0.000483
      f-1     :     0.000572
      f+2     :     0.000405
      f-2     :     0.000442
      f+3     :     0.000421
      f-3     :     0.000284
 13 H s       :     0.776958  s :     0.776958
      pz      :     0.007079  p :     0.023495
      px      :     0.004855
      py      :     0.011561
 14 H s       :     1.077869  s :     1.077869
      pz      :     0.006165  p :     0.014387
      px      :     0.005432
      py      :     0.002790
 15 H s       :     0.667372  s :     0.667372
      pz      :     0.006553  p :     0.037388
      px      :     0.011260
      py      :     0.019574
 16 H s       :     0.670207  s :     0.670207
      pz      :     0.018257  p :     0.038055
      px      :     0.009434
      py      :     0.010365
 17 Cus       :     6.449779  s :     6.449779
      pz      :     4.113422  p :    12.276304
      px      :     4.137742
      py      :     4.025140
      dz2     :     1.935149  d :     9.762065
      dxz     :     1.908254
      dyz     :     1.992222
      dx2y2   :     1.972305
      dxy     :     1.954135
      f0      :     0.000009  f :     0.000093
      f+1     :     0.000006
      f-1     :     0.000012
      f+2     :     0.000018
      f-2     :     0.000017
      f+3     :     0.000019
      f-3     :     0.000012


                     *******************************
                     * LOEWDIN POPULATION ANALYSIS *
                     *******************************

----------------------
LOEWDIN ATOMIC CHARGES
----------------------
   0 C :   -0.123451
   1 C :   -0.086912
   2 C :   -0.153674
   3 C :   -0.094637
   4 C :   -0.123961
   5 C :   -0.116826
   6 H :    0.154329
   7 H :    0.153783
   8 H :    0.158732
   9 H :    0.158869
  10 H :    0.154064
  11 C :   -0.181353
  12 N :    0.045832
  13 H :    0.170707
  14 H :    0.043906
  15 H :    0.204124
  16 H :    0.197640
  17 Cu:    0.438825

-------------------------------
LOEWDIN REDUCED ORBITAL CHARGES
-------------------------------
  0 C s       :     2.765591  s :     2.765591
      pz      :     0.934240  p :     2.933773
      px      :     1.002821
      py      :     0.996712
      dz2     :     0.046905  d :     0.380789
      dxz     :     0.075710
      dyz     :     0.059080
      dx2y2   :     0.104544
      dxy     :     0.094549
      f0      :     0.005126  f :     0.043298
      f+1     :     0.003207
      f-1     :     0.005179
      f+2     :     0.005017
      f-2     :     0.008495
      f+3     :     0.010112
      f-3     :     0.006163
  1 C s       :     2.757292  s :     2.757292
      pz      :     0.915512  p :     2.905666
      px      :     1.034358
      py      :     0.955797
      dz2     :     0.034608  d :     0.380854
      dxz     :     0.082441
      dyz     :     0.054681
      dx2y2   :     0.117056
      dxy     :     0.092069
      f0      :     0.003846  f :     0.043099
      f+1     :     0.007645
      f-1     :     0.001607
      f+2     :     0.004647
      f-2     :     0.007665
      f+3     :     0.010307
      f-3     :     0.007382
  2 C s       :     2.702299  s :     2.702299
      pz      :     0.930507  p :     2.875503
      px      :     0.976772
      py      :     0.968225
      dz2     :     0.083379  d :     0.518033
      dxz     :     0.099348
      dyz     :     0.070594
      dx2y2   :     0.118452
      dxy     :     0.146260
      f0      :     0.005211  f :     0.057838
      f+1     :     0.007097
      f-1     :     0.005326
      f+2     :     0.006662
      f-2     :     0.011462
      f+3     :     0.012661
      f-3     :     0.009419
  3 C s       :     2.755073  s :     2.755073
      pz      :     0.928881  p :     2.916556
      px      :     1.003823
      py      :     0.983853
      dz2     :     0.048537  d :     0.379796
      dxz     :     0.073167
      dyz     :     0.059503
      dx2y2   :     0.108610
      dxy     :     0.089978
      f0      :     0.005267  f :     0.043213
      f+1     :     0.003134
      f-1     :     0.005310
      f+2     :     0.004923
      f-2     :     0.008238
      f+3     :     0.010072
      f-3     :     0.006268
  4 C s       :     2.765571  s :     2.765571
      pz      :     0.919779  p :     2.932487
      px      :     1.056545
      py      :     0.956163
      dz2     :     0.034820  d :     0.382502
      dxz     :     0.081974
      dyz     :     0.053641
      dx2y2   :     0.120200
      dxy     :     0.091868
      f0      :     0.003869  f :     0.043401
      f+1     :     0.007484
      f-1     :     0.001623
      f+2     :     0.004640
      f-2     :     0.007883
      f+3     :     0.010655
      f-3     :     0.007248
  5 C s       :     2.767886  s :     2.767886
      pz      :     0.936949  p :     2.924395
      px      :     1.010177
      py      :     0.977269
      dz2     :     0.066784  d :     0.381423
      dxz     :     0.068148
      dyz     :     0.053564
      dx2y2   :     0.076469
      dxy     :     0.116457
      f0      :     0.003799  f :     0.043122
      f+1     :     0.005507
      f-1     :     0.004951
      f+2     :     0.006332
      f-2     :     0.007831
      f+3     :     0.007775
      f-3     :     0.006927
  6 H s       :     0.786369  s :     0.786369
      pz      :     0.016575  p :     0.059302
      px      :     0.029758
      py      :     0.012969
  7 H s       :     0.786902  s :     0.786902
      pz      :     0.012684  p :     0.059315
      px      :     0.027671
      py      :     0.018959
  8 H s       :     0.781640  s :     0.781640
      pz      :     0.021359  p :     0.059628
      px      :     0.010704
      py      :     0.027565
  9 H s       :     0.781163  s :     0.781163
      pz      :     0.016825  p :     0.059968
      px      :     0.029242
      py      :     0.013901
 10 H s       :     0.786653  s :     0.786653
      pz      :     0.020970  p :     0.059282
      px      :     0.010801
      py      :     0.027511
 11 C s       :     2.785153  s :     2.785153
      pz      :     0.896217  p :     2.819395
      px      :     0.929315
      py      :     0.993863
      dz2     :     0.094326  d :     0.516768
      dxz     :     0.124229
      dyz     :     0.104390
      dx2y2   :     0.108717
      dxy     :     0.085106
      f0      :     0.009950  f :     0.060037
      f+1     :     0.012186
      f-1     :     0.003823
      f+2     :     0.009125
      f-2     :     0.010124
      f+3     :     0.008332
      f-3     :     0.006497
 12 N s       :     2.983385  s :     2.983385
      pz      :     1.187031  p :     3.807487
      px      :     1.391239
      py      :     1.229217
      dz2     :     0.042713  d :     0.152590
      dxz     :     0.031191
      dyz     :     0.036715
      dx2y2   :     0.022595
      dxy     :     0.019375
      f0      :     0.001217  f :     0.010706
      f+1     :     0.002036
      f-1     :     0.001925
      f+2     :     0.001341
      f-2     :     0.001997
      f+3     :     0.001130
      f-3     :     0.001060
 13 H s       :     0.766864  s :     0.766864
      pz      :     0.019122  p :     0.062429
      px      :     0.011242
      py      :     0.032064
 14 H s       :     0.922569  s :     0.922569
      pz      :     0.013505  p :     0.033525
      px      :     0.013200
      py      :     0.006820
 15 H s       :     0.686839  s :     0.686839
      pz      :     0.018251  p :     0.109037
      px      :     0.032104
      py      :     0.058682
 16 H s       :     0.692256  s :     0.692256
      pz      :     0.049988  p :     0.110104
      px      :     0.027910
      py      :     0.032205
 17 Cus       :     6.280479  s :     6.280479
      pz      :     4.204031  p :    12.337948
      px      :     4.100315
      py      :     4.033602
      dz2     :     1.971087  d :     9.942613
      dxz     :     1.958161
      dyz     :     2.025803
      dx2y2   :     1.998320
      dxy     :     1.989242
      f0      :     0.000013  f :     0.000134
      f+1     :     0.000009
      f-1     :     0.000019
      f+2     :     0.000027
      f-2     :     0.000022
      f+3     :     0.000026
      f-3     :     0.000018


                      *****************************
                      * MAYER POPULATION ANALYSIS *
                      *****************************

  NA   - Mulliken gross atomic population
  ZA   - Total nuclear charge
  QA   - Mulliken gross atomic charge
  VA   - Mayer's total valence
  BVA  - Mayer's bonded valence
  FA   - Mayer's free valence

  ATOM       NA         ZA         QA         VA         BVA        FA
  0 C      6.1129     6.0000    -0.1129     3.8713     3.8713     0.0000
  1 C      6.2059     6.0000    -0.2059     3.9627     3.9627    -0.0000
  2 C      5.9170     6.0000     0.0830     3.7132     3.7132     0.0000
  3 C      6.2074     6.0000    -0.2074     3.9116     3.9116     0.0000
  4 C      6.1396     6.0000    -0.1396     3.9168     3.9168     0.0000
  5 C      6.1240     6.0000    -0.1240     3.8900     3.8900     0.0000
  6 H      0.8504     1.0000     0.1496     0.9640     0.9640     0.0000
  7 H      0.8490     1.0000     0.1510     0.9631     0.9631     0.0000
  8 H      0.8511     1.0000     0.1489     0.9682     0.9682    -0.0000
  9 H      0.8475     1.0000     0.1525     0.9737     0.9737     0.0000
 10 H      0.8514     1.0000     0.1486     0.9659     0.9659     0.0000
 11 C      5.8052     6.0000     0.1948     3.7366     3.7366     0.0000
 12 N      7.4446     7.0000    -0.4446     3.2059     3.2059     0.0000
 13 H      0.8005     1.0000     0.1995     0.9642     0.9642     0.0000
 14 H      1.0923     1.0000    -0.0923     1.0132     1.0132     0.0000
 15 H      0.7048     1.0000     0.2952     0.9228     0.9228     0.0000
 16 H      0.7083     1.0000     0.2917     0.9281     0.9281    -0.0000
 17 Cu    28.4882    29.0000     0.5118     1.5045     1.5045    -0.0000

  Mayer bond orders larger than 0.100000
B(  0-C ,  1-C ) :   1.4226 B(  0-C ,  5-C ) :   1.3859 B(  0-C ,  6-H ) :   0.9710 
B(  1-C ,  2-C ) :   1.3529 B(  1-C ,  8-H ) :   0.9674 B(  2-C ,  3-C ) :   1.2938 
B(  2-C , 11-C ) :   1.0286 B(  3-C ,  4-C ) :   1.4492 B(  3-C ,  9-H ) :   0.9656 
B(  4-C ,  5-C ) :   1.3794 B(  4-C , 10-H ) :   0.9689 B(  5-C ,  7-H ) :   0.9654 
B( 11-C , 12-N ) :   0.9928 B( 11-C , 13-H ) :   0.9771 B( 11-C , 14-H ) :   0.2505 
B( 11-C , 17-Cu) :   0.4574 B( 12-N , 15-H ) :   0.8967 B( 12-N , 16-H ) :   0.8969 
B( 12-N , 17-Cu) :   0.2912 B( 14-H , 17-Cu) :   0.6284 

-------
TIMINGS
-------

Total SCF time: 0 days 0 hours 7 min 1 sec 

Total time                  ....     421.911 sec
Sum of individual times     ....     384.612 sec  ( 91.2%)

Fock matrix formation       ....     178.528 sec  ( 42.3%)
  Split-RI-J                ....      56.597 sec  ( 31.7% of F)
  Chain of spheres X        ....      24.561 sec  ( 13.8% of F)
  XC integration            ....      15.110 sec  (  8.5% of F)
    Basis function eval.    ....       0.734 sec  (  4.9% of XC)
    Density eval.           ....       0.730 sec  (  4.8% of XC)
    XC-Functional eval.     ....       0.139 sec  (  0.9% of XC)
    XC-Potential eval.      ....       0.588 sec  (  3.9% of XC)
Diagonalization             ....      67.785 sec  ( 16.1%)
Density matrix formation    ....       2.498 sec  (  0.6%)
Population analysis         ....       4.139 sec  (  1.0%)
Initial guess               ....       6.677 sec  (  1.6%)
Orbital Transformation      ....       0.000 sec  (  0.0%)
Orbital Orthonormalization  ....       0.000 sec  (  0.0%)
DIIS solution               ....     110.362 sec  ( 26.2%)
Grid generation             ....      14.623 sec  (  3.5%)

Maximum memory used throughout the entire SCF-calculation: 83.1 MB


-------------------------------------------------------------------------------
                          DFT DISPERSION CORRECTION                            
                                                                               
                              DFTD3 V3.1  Rev 1                                
                          USING Becke-Johnson damping                          
-------------------------------------------------------------------------------
The B3LYP functional is recognized
Active option DFTDOPT                   ...         4   

molecular C6(AA) [au] = 4478.938937 


            DFT-D V3
 parameters
 s6 scaling factor         :     1.0000 
 a1 scaling factor         :     0.3981 
 s8 scaling factor         :     1.9889 
 a2 scaling factor         :     4.4211 
 ad hoc parameters k1-k3   :    16.0000     1.3333    -4.0000 

 Edisp/kcal,au: -22.431129168709  -0.035746275878 
 E6   /kcal   : -10.091763850 
 E8   /kcal   : -12.339365318 
 % E8         :  55.010005184 

-------------------------   ----------------
Dispersion correction           -0.035746276
-------------------------   ----------------


-------------------------   --------------------
FINAL SINGLE POINT ENERGY     -1967.121981489601
-------------------------   --------------------



           ************************************************************
           *        Program running with 32 parallel MPI-processes    *
           *              working on a common directory               *
           ************************************************************
------------------------------------------------------------------------------
                         ORCA SCF GRADIENT CALCULATION
------------------------------------------------------------------------------

 ... reading COSX grid (gridx3)
Gradient of the Kohn-Sham DFT energy:
Kohn-Sham wavefunction type      ... RKS
Hartree-Fock exchange scaling    ...    0.200
Number of operators              ...    1
Number of atoms                  ...   18
Basis set dimensions             ...  347
Integral neglect threshold       ... 2.5e-11
Integral primitive cutoff        ... 2.5e-12
SHARK Integral package           ... ON

Nuc. rep. gradient       (SHARK) ... done (  0.1 sec)
HCore & Overlap gradient (SHARK) ... done (  2.4 sec)
RI-J gradient            (SHARK) ... done (  2.6 sec)
COSX-gradient                    ... done (  3.8 sec)
Exchange-correlation gradient    ... done
Dispersion correction            ... done

------------------
CARTESIAN GRADIENT
------------------

   1   C   :   -0.000000081   -0.000016677   -0.000000843
   2   C   :   -0.000005138   -0.000008997   -0.000002312
   3   C   :   -0.000003745    0.000001031   -0.000000358
   4   C   :    0.000003899    0.000003876    0.000002983
   5   C   :    0.000009104   -0.000002778    0.000004393
   6   C   :    0.000006961   -0.000013524    0.000002537
   7   H   :   -0.000001859   -0.000024700   -0.000002606
   8   H   :    0.000010973   -0.000019264    0.000003659
   9   H   :   -0.000011001   -0.000012019   -0.000004911
  10   H   :    0.000005445    0.000012251    0.000004673
  11   H   :    0.000014551   -0.000001015    0.000007422
  12   C   :   -0.000009209    0.000008042   -0.000001530
  13   N   :   -0.000011713    0.000018461   -0.000001479
  14   H   :   -0.000015285    0.000005492   -0.000005139
  15   H   :   -0.000002572    0.000007258    0.000000335
  16   H   :   -0.000018443    0.000020980   -0.000004525
  17   H   :   -0.000008611    0.000019999   -0.000000828
  18   Cu  :   -0.000003035    0.000018959    0.000002191

Difference to translation invariance:
           :   -0.0000397579    0.0000173767    0.0000036625

Difference to rotation invariance:
           :   -0.0003308593   -0.0000017295    0.0014245519

Norm of the cartesian gradient     ...    0.0000728589
RMS gradient                       ...    0.0000099148
MAX gradient                       ...    0.0000246995

-------
TIMINGS
-------

Total SCF gradient time            ...       14.492 sec

One electron gradient       ....       2.441 sec  ( 16.8%)
RI-J Coulomb gradient       ....       2.638 sec  ( 18.2%)
COSX gradient               ....       3.776 sec  ( 26.1%)
XC gradient                 ....       1.510 sec  ( 10.4%)
CPCM gradient               ....       0.410 sec  (  2.8%)
   A-Matrix (El+Nuc)        ....       0.136 sec  (  0.9%)
   Potential                ....       0.274 sec  (  1.9%)

Maximum memory used throughout the entire SCFGRAD-calculation: 54.9 MB

                            ***************************************
                            *     ORCA property calculations      *
                            ***************************************

                                    ---------------------
                                    Active property flags
                                    ---------------------
   (+) Dipole Moment


------------------------------------------------------------------------------
                       ORCA ELECTRIC PROPERTIES CALCULATION
------------------------------------------------------------------------------

Dipole Moment Calculation                       ... on
Quadrupole Moment Calculation                   ... off
Polarizability Calculation                      ... off
GBWName                                         ... orca.gbw
Electron density                                ... orca.scfp
The origin for moment calculation is the CENTER OF MASS  = ( 0.439811,  3.985475  3.487154)

-------------
DIPOLE MOMENT
-------------
                                X             Y             Z
Electronic contribution:     20.90793       1.41804      -5.95486
Nuclear contribution   :    -18.59289      -0.27231       6.56119
                        -----------------------------------------
Total Dipole Moment    :      2.31504       1.14574       0.60633
                        -----------------------------------------
Magnitude (a.u.)       :      2.65325
Magnitude (Debye)      :      6.74404



--------------------
Rotational spectrum 
--------------------
 
Rotational constants in cm-1:     0.104006     0.020437     0.019519 
Rotational constants in MHz :  3118.013181   612.673541   585.167804 

 Dipole components along the rotational axes: 
x,y,z [a.u.] :    -2.366477     0.140469    -1.191558 
x,y,z [Debye]:    -6.015107     0.357044    -3.028699 

 



--------------------------------------------------------------------------------
                   Intrinsic Reaction Coordinate Calculation
--------------------------------------------------------------------------------

System:
Nr. of atoms                        .... 18
Algorithm: SD (steepest descent step) plus correction
Settings:
Max. no of cycles        MaxIter    .... 2000
Direction                           .... Forward and backward
Initial displacement Hessian type   .... Compute numerically
Following Hessian mode              .... 0
Initial displacement type           .... Energy
  Initial displacement energy change.... 2.000 mEh
Coordinate system following type    .... Cartesian
Length of steepest descent step     .... 0.150 bohr
Do parabolic fit 
  if SD step is uphill              .... YES
Do Correction to SD step            .... YES
Scaling for length of correction
  compared to SD step               .... 0.333
Do parabolic fit to SD correction   .... YES
Only interpolate for parabolic fit  .... YES
Do update to length of
  SD step and correction            .... YES
Convergence Tolerances:
  Max. Gradient            TolMAXG  ....  2.0000e-03 Eh/bohr
  RMS Gradient             TolRMSG  ....  5.0000e-04 Eh/bohr
Storing full IRC trajectory in      .... orca_IRC_Full_trj.xyz
Storing forward trajectory in       .... orca_IRC_F_trj.xyz
Storing backward trajectory in      .... orca_IRC_B_trj.xyz



----------------------------------------------------------------------------
                           ORCA NUMERICAL FREQUENCIES
                              (32-process run)
----------------------------------------------------------------------------

Number of atoms                ... 18
Central differences            ... NOT used
Number of displacements        ... 54
Numerical increment            ... 5.000e-03 bohr
IR-spectrum generation         ... on
Raman-spectrum generation      ... off
Surface Crossing Hessian       ... off

The output will be reduced. Please look at the following files:
SCF program output             ... >orca.lastscf
Integral program output        ... >orca.lastint
Gradient program output        ... >orca.lastgrad
Dipole moment program output   ... >orca.lastmom
AutoCI program output          ... >orca.lastautoci

	<< Calculating on displaced geometry   6 (of  55) >>
	<< Calculating on displaced geometry   9 (of  55) >>
	<< Calculating on displaced geometry   8 (of  55) >>
	<< Calculating on displaced geometry  31 (of  55) >>
	<< Calculating on displaced geometry  12 (of  55) >>
[...]
 44:   1639.64   0.003413   17.25  0.000650  (-0.022310 -0.012259 -0.001224)
 45:   1780.53   0.008039   40.62  0.001409  ( 0.022962  0.018355  0.023339)
 46:   3161.36   0.001203    6.08  0.000119  ( 0.010450  0.001561  0.002664)
 47:   3173.28   0.000593    2.99  0.000058  ( 0.000825  0.006755 -0.003459)
 48:   3187.75   0.000150    0.76  0.000015  (-0.002883 -0.001562 -0.001990)
 49:   3191.90   0.000503    2.54  0.000049  ( 0.003530 -0.005611 -0.002282)
 50:   3197.12   0.002272   11.48  0.000222  ( 0.005624 -0.010171  0.009312)
 51:   3206.97   0.001994   10.08  0.000194  (-0.012837 -0.005094  0.001827)
 52:   3519.03   0.026235  132.58  0.002326  (-0.008109 -0.023726 -0.041204)
 53:   3619.82   0.022517  113.79  0.001941  (-0.013851 -0.038539  0.016252)

* The epsilon (eps) is given for a Dirac delta lineshape.
** The dipole moment derivative (T) already includes vibrational overlap.

The first frequency considered to be a vibration is 7
The total number of vibrations considered is 47


--------------------------
THERMOCHEMISTRY AT 298.15K
--------------------------

Temperature         ... 298.15 K
Pressure            ... 1.00 atm
Total Mass          ... 170.71 AMU

Throughout the following assumptions are being made:
  (1) The electronic state is orbitally nondegenerate
  (2) There are no thermally accessible electronically excited states
  (3) Hindered rotations indicated by low frequency modes are not
      treated as such but are treated as vibrations and this may
      cause some error
  (4) All equations used are the standard statistical mechanics
      equations for an ideal gas
  (5) All vibrations are strictly harmonic

freq.      48.40  E(vib)   ...       0.53 
freq.      81.18  E(vib)   ...       0.48 
freq.     173.56  E(vib)   ...       0.38 
freq.     227.96  E(vib)   ...       0.33 
freq.     262.05  E(vib)   ...       0.29 
freq.     358.48  E(vib)   ...       0.22 
freq.     411.06  E(vib)   ...       0.19 
freq.     423.86  E(vib)   ...       0.18 
freq.     488.23  E(vib)   ...       0.15 
freq.     525.94  E(vib)   ...       0.13 
freq.     582.07  E(vib)   ...       0.11 
freq.     632.58  E(vib)   ...       0.09 
freq.     635.34  E(vib)   ...       0.09 
freq.     692.16  E(vib)   ...       0.07 
freq.     709.22  E(vib)   ...       0.07 
freq.     791.44  E(vib)   ...       0.05 
freq.     809.38  E(vib)   ...       0.05 
freq.     856.13  E(vib)   ...       0.04 
freq.     945.28  E(vib)   ...       0.03 
freq.     989.14  E(vib)   ...       0.02 
freq.    1015.94  E(vib)   ...       0.02 
freq.    1022.08  E(vib)   ...       0.02 
freq.    1050.02  E(vib)   ...       0.02 
freq.    1094.57  E(vib)   ...       0.02 
freq.    1104.90  E(vib)   ...       0.02 
freq.    1139.19  E(vib)   ...       0.01 
freq.    1181.99  E(vib)   ...       0.01 
freq.    1182.87  E(vib)   ...       0.01 
freq.    1208.73  E(vib)   ...       0.01 
freq.    1246.06  E(vib)   ...       0.01 
freq.    1336.59  E(vib)   ...       0.01 
freq.    1368.81  E(vib)   ...       0.01 
freq.    1435.17  E(vib)   ...       0.00 
freq.    1492.65  E(vib)   ...       0.00 
freq.    1533.70  E(vib)   ...       0.00 
freq.    1622.73  E(vib)   ...       0.00 
freq.    1623.37  E(vib)   ...       0.00 
freq.    1639.64  E(vib)   ...       0.00 
freq.    1780.53  E(vib)   ...       0.00 
freq.    3161.36  E(vib)   ...       0.00 
freq.    3173.28  E(vib)   ...       0.00 
freq.    3187.75  E(vib)   ...       0.00 
freq.    3191.90  E(vib)   ...       0.00 
freq.    3197.12  E(vib)   ...       0.00 
freq.    3206.97  E(vib)   ...       0.00 
freq.    3519.03  E(vib)   ...       0.00 
freq.    3619.82  E(vib)   ...       0.00 

------------
INNER ENERGY
------------

The inner energy is: U= E(el) + E(ZPE) + E(vib) + E(rot) + E(trans)
    E(el)   - is the total energy from the electronic structure calculation
              = E(kin-el) + E(nuc-el) + E(el-el) + E(nuc-nuc)
    E(ZPE)  - the the zero temperature vibrational energy from the frequency calculation
    E(vib)  - the the finite temperature correction to E(ZPE) due to population
              of excited vibrational states
    E(rot)  - is the rotational thermal energy
    E(trans)- is the translational thermal energy

Summary of contributions to the inner energy U:
Electronic energy                ...  -1967.12198149 Eh
Zero point energy                ...      0.14120130 Eh      88.60 kcal/mol
Thermal vibrational correction   ...      0.00584105 Eh       3.67 kcal/mol
Thermal rotational correction    ...      0.00141627 Eh       0.89 kcal/mol
Thermal translational correction ...      0.00141627 Eh       0.89 kcal/mol
-----------------------------------------------------------------------
Total thermal energy                  -1966.97210660 Eh


Summary of corrections to the electronic energy:
(perhaps to be used in another calculation)
Total thermal correction                  0.00867359 Eh       5.44 kcal/mol
Non-thermal (ZPE) correction              0.14120130 Eh      88.60 kcal/mol
-----------------------------------------------------------------------
Total correction                          0.14987489 Eh      94.05 kcal/mol


--------
ENTHALPY
--------

The enthalpy is H = U + kB*T
                kB is Boltzmann's constant
Total free energy                 ...  -1966.97210660 Eh 
Thermal Enthalpy correction       ...      0.00094421 Eh       0.59 kcal/mol
-----------------------------------------------------------------------
Total Enthalpy                    ...  -1966.97116239 Eh


Note: Only C1 symmetry has been detected, increase convergence thresholds 
      if your molecule has a higher symmetry. Symmetry factor of 1.0 is   
      used for the rotational entropy correction. 
 

Note: Rotational entropy computed according to Herzberg 
Infrared and Raman Spectra, Chapter V,1, Van Nostrand Reinhold, 1945 
Point Group:  C1, Symmetry Number:   1  
Rotational constants in cm-1:     0.104006     0.020437     0.019519 

Vibrational entropy computed according to the QRRHO of S. Grimme
Chem.Eur.J. 2012 18 9955


-------
ENTROPY
-------

The entropy contributions are T*S = T*(S(el)+S(vib)+S(rot)+S(trans))
     S(el)   - electronic entropy
     S(vib)  - vibrational entropy
     S(rot)  - rotational entropy
     S(trans)- translational entropy
The entropies will be listed as multiplied by the temperature to get
units of energy

Electronic entropy                ...      0.00000000 Eh      0.00 kcal/mol
Vibrational entropy               ...      0.00973499 Eh      6.11 kcal/mol
Rotational entropy                ...      0.01427425 Eh      8.96 kcal/mol
Translational entropy             ...      0.01962863 Eh     12.32 kcal/mol
-----------------------------------------------------------------------
Final entropy term                ...      0.04363786 Eh     27.38 kcal/mol

In case the symmetry of your molecule has not been determined correctly
or in case you have a reason to use a different symmetry number we print 
out the resulting rotational entropy values for sn=1,12 :
 --------------------------------------------------------
|  sn= 1 | S(rot)=       0.01427425 Eh      8.96 kcal/mol|
|  sn= 2 | S(rot)=       0.01361979 Eh      8.55 kcal/mol|
|  sn= 3 | S(rot)=       0.01323696 Eh      8.31 kcal/mol|
|  sn= 4 | S(rot)=       0.01296534 Eh      8.14 kcal/mol|
|  sn= 5 | S(rot)=       0.01275465 Eh      8.00 kcal/mol|
|  sn= 6 | S(rot)=       0.01258251 Eh      7.90 kcal/mol|
|  sn= 7 | S(rot)=       0.01243696 Eh      7.80 kcal/mol|
|  sn= 8 | S(rot)=       0.01231088 Eh      7.73 kcal/mol|
|  sn= 9 | S(rot)=       0.01219967 Eh      7.66 kcal/mol|
|  sn=10 | S(rot)=       0.01210019 Eh      7.59 kcal/mol|
|  sn=11 | S(rot)=       0.01201020 Eh      7.54 kcal/mol|
|  sn=12 | S(rot)=       0.01192805 Eh      7.48 kcal/mol|
 --------------------------------------------------------


-------------------
GIBBS FREE ENERGY
-------------------

The Gibbs free energy is G = H - T*S

Total enthalpy                    ...  -1966.97116239 Eh 
Total entropy correction          ...     -0.04363786 Eh    -27.38 kcal/mol
-----------------------------------------------------------------------
Final Gibbs free energy         ...  -1967.01480026 Eh

For completeness - the Gibbs free energy minus the electronic energy
G-E(el)                           ...      0.10718123 Eh     67.26 kcal/mol


Reading the hessian file           ...... done
Determining length of initial displacement:
  Requested energy change (quadratic behavior): 2.000 mEh
  Resulting scaling factor for initial displacement along normalized TS mode: 0.3689

         *************************************************************
         *                          FORWARD IRC                      *
         *************************************************************

Iteration    E(Eh)      dE(kcal/mol)  max(|G|)   RMS(G) 
Convergence thresholds                0.002000  0.000500            
    0     -1967.123543   -0.979797    0.009308  0.001940
    1     -1967.125107   -1.961029    0.010517  0.002247
    2     -1967.125685   -2.324148    0.009427  0.002005
    3     -1967.126638   -2.922291    0.008829  0.001902
    4     -1967.127685   -3.579032    0.008935  0.001925
    5     -1967.128743   -4.242983    0.008811  0.001918
    6     -1967.129792   -4.901037    0.008480  0.001886
    7     -1967.130808   -5.538586    0.008103  0.001825
    8     -1967.131785   -6.151559    0.007581  0.001749
    9     -1967.132714   -6.734522    0.007043  0.001660
   10     -1967.133593   -7.286174    0.006451  0.001567
   11     -1967.134421   -7.805729    0.005867  0.001475
   12     -1967.135196   -8.292411    0.005297  0.001379
   13     -1967.135923   -8.748126    0.005132  0.001291
   14     -1967.136596   -9.170984    0.004920  0.001196
   15     -1967.137223   -9.564303    0.004676  0.001112
   16     -1967.137799   -9.925919    0.004390  0.001024
   17     -1967.138332   -10.259902    0.004096  0.000946
   18     -1967.138819   -10.565546    0.003785  0.000899
   19     -1967.139249   -10.835330    0.003514  0.000948
   20     -1967.139400   -10.929956    0.003402  0.000992
   21     -1967.139472   -10.975463    0.003359  0.000805
   22     -1967.139573   -11.038703    0.003294  0.000752
   23     -1967.139676   -11.103301    0.003226  0.000737
   24     -1967.139777   -11.166565    0.003160  0.000725
   25     -1967.139875   -11.228295    0.003094  0.000709
   26     -1967.139972   -11.288928    0.003030  0.000696
   27     -1967.140066   -11.348413    0.002966  0.000683
   28     -1967.140159   -11.406639    0.002904  0.000668
   29     -1967.140250   -11.463913    0.002843  0.000659
   30     -1967.140339   -11.519754    0.002784  0.000642
   31     -1967.140427   -11.574934    0.002725  0.000632
   32     -1967.140513   -11.628772    0.002668  0.000617
   33     -1967.140598   -11.681774    0.002611  0.000610
   34     -1967.140680   -11.733339    0.002555  0.000593
   35     -1967.140761   -11.784354    0.002500  0.000584
   36     -1967.140840   -11.834091    0.002445  0.000571
   37     -1967.140918   -11.883058    0.002391  0.000562
   38     -1967.140994   -11.930757    0.002338  0.000548
   39     -1967.141069   -11.977763    0.002283  0.000540
   40     -1967.141142   -12.023625    0.002231  0.000526
   41     -1967.141214   -12.068727    0.002177  0.000517
   42     -1967.141284   -12.112766    0.002126  0.000505
   43     -1967.141353   -12.155984    0.002072  0.000495
   44     -1967.141421   -12.198270    0.002021  0.000484
   45     -1967.141487   -12.239663    0.001968  0.000474

                      ***********************HURRAY********************
                      ***            THE IRC HAS CONVERGED          ***
                      *************************************************


         *************************************************************
         *                          BACKWARD IRC                     *
         *************************************************************

Iteration    E(Eh)      dE(kcal/mol)  max(|G|)   RMS(G) 
Convergence thresholds                0.002000  0.000500            
    0     -1967.124311   -1.461728    0.013600  0.003053
    1     -1967.128051   -3.808494    0.019714  0.004397
    2     -1967.133340   -7.127757    0.025829  0.005526
    3     -1967.139701   -11.118892    0.028311  0.006052
    4     -1967.146117   -15.145537    0.025173  0.005719
    5     -1967.151801   -18.711772    0.021770  0.004970
    6     -1967.156328   -21.552647    0.019496  0.003996
    7     -1967.160222   -23.995928    0.017140  0.003405
    8     -1967.163541   -26.079063    0.014761  0.002952
    9     -1967.166543   -27.962685    0.012861  0.002663
   10     -1967.169310   -29.699090    0.011409  0.002469
   11     -1967.171890   -31.318299    0.010454  0.002305
   12     -1967.174306   -32.834058    0.009581  0.002151
   13     -1967.176514   -34.219361    0.008704  0.001979
   14     -1967.178474   -35.449270    0.007565  0.001857
   15     -1967.180070   -36.450828    0.006486  0.002120
   16     -1967.180383   -36.647601    0.006324  0.001676
   17     -1967.181098   -37.096403    0.006063  0.001440
   18     -1967.181826   -37.552813    0.005805  0.001339
   19     -1967.182504   -37.978531    0.005485  0.001245
   20     -1967.183123   -38.366555    0.005144  0.001163
   21     -1967.183672   -38.711135    0.004725  0.001095
   22     -1967.184138   -39.003554    0.004304  0.001179
   23     -1967.184249   -39.073229    0.004180  0.000973
   24     -1967.184460   -39.205562    0.003928  0.000823
   25     -1967.184673   -39.339210    0.003658  0.000768
   26     -1967.184868   -39.461483    0.003377  0.000705
   27     -1967.185048   -39.574485    0.003127  0.000649
   28     -1967.185213   -39.678191    0.002876  0.000597
   29     -1967.185364   -39.773179    0.002658  0.000556
   30     -1967.185501   -39.858798    0.002432  0.000539
   31     -1967.185617   -39.931798    0.002267  0.000595
   32     -1967.185652   -39.953849    0.002204  0.000520
   33     -1967.185706   -39.987374    0.002116  0.000434
   34     -1967.185763   -40.023646    0.002029  0.000418
   35     -1967.185819   -40.058388    0.001937  0.000401

                      ***********************HURRAY********************
                      ***            THE IRC HAS CONVERGED          ***
                      *************************************************


---------------------------------------------------------------
                       IRC PATH SUMMARY              
---------------------------------------------------------------
All gradients are in Eh/Bohr.

Step        E(Eh)      dE(kcal/mol)  max(|G|)   RMS(G) 
   1     -1967.185819   -40.058388    0.001937  0.000401
   2     -1967.185763   -40.023646    0.002029  0.000418
   3     -1967.185706   -39.987374    0.002116  0.000434
   4     -1967.185652   -39.953849    0.002204  0.000520
   5     -1967.185617   -39.931798    0.002267  0.000595
   6     -1967.185501   -39.858798    0.002432  0.000539
   7     -1967.185364   -39.773179    0.002658  0.000556
   8     -1967.185213   -39.678191    0.002876  0.000597
   9     -1967.185048   -39.574485    0.003127  0.000649
  10     -1967.184868   -39.461483    0.003377  0.000705
  11     -1967.184673   -39.339210    0.003658  0.000768
  12     -1967.184460   -39.205562    0.003928  0.000823
  13     -1967.184249   -39.073229    0.004180  0.000973
  14     -1967.184138   -39.003554    0.004304  0.001179
  15     -1967.183672   -38.711135    0.004725  0.001095
  16     -1967.183123   -38.366555    0.005144  0.001163
  17     -1967.182504   -37.978531    0.005485  0.001245
  18     -1967.181826   -37.552813    0.005805  0.001339
  19     -1967.181098   -37.096403    0.006063  0.001440
  20     -1967.180383   -36.647601    0.006324  0.001676
  21     -1967.180070   -36.450828    0.006486  0.002120
  22     -1967.178474   -35.449270    0.007565  0.001857
  23     -1967.176514   -34.219361    0.008704  0.001979
  24     -1967.174306   -32.834058    0.009581  0.002151
  25     -1967.171890   -31.318299    0.010454  0.002305
  26     -1967.169310   -29.699090    0.011409  0.002469
  27     -1967.166543   -27.962685    0.012861  0.002663
  28     -1967.163541   -26.079063    0.014761  0.002952
  29     -1967.160222   -23.995928    0.017140  0.003405
  30     -1967.156328   -21.552647    0.019496  0.003996
  31     -1967.151801   -18.711772    0.021770  0.004970
  32     -1967.146117   -15.145537    0.025173  0.005719
  33     -1967.139701   -11.118892    0.028311  0.006052
  34     -1967.133340   -7.127757    0.025829  0.005526
  35     -1967.128051   -3.808494    0.019714  0.004397
  36     -1967.124311   -1.461728    0.013600  0.003053
  37     -1967.121981    0.000000    0.000025  0.000010 <= TS
  38     -1967.123543   -0.979797    0.009308  0.001940
  39     -1967.125107   -1.961029    0.010517  0.002247
  40     -1967.125685   -2.324148    0.009427  0.002005
  41     -1967.126638   -2.922291    0.008829  0.001902
  42     -1967.127685   -3.579032    0.008935  0.001925
  43     -1967.128743   -4.242983    0.008811  0.001918
  44     -1967.129792   -4.901037    0.008480  0.001886
  45     -1967.130808   -5.538586    0.008103  0.001825
  46     -1967.131785   -6.151559    0.007581  0.001749
  47     -1967.132714   -6.734522    0.007043  0.001660
  48     -1967.133593   -7.286174    0.006451  0.001567
  49     -1967.134421   -7.805729    0.005867  0.001475
  50     -1967.135196   -8.292411    0.005297  0.001379
  51     -1967.135923   -8.748126    0.005132  0.001291
  52     -1967.136596   -9.170984    0.004920  0.001196
  53     -1967.137223   -9.564303    0.004676  0.001112
  54     -1967.137799   -9.925919    0.004390  0.001024
  55     -1967.138332   -10.259902    0.004096  0.000946
  56     -1967.138819   -10.565546    0.003785  0.000899
  57     -1967.139249   -10.835330    0.003514  0.000948
  58     -1967.139400   -10.929956    0.003402  0.000992
  59     -1967.139472   -10.975463    0.003359  0.000805
  60     -1967.139573   -11.038703    0.003294  0.000752
  61     -1967.139676   -11.103301    0.003226  0.000737
  62     -1967.139777   -11.166565    0.003160  0.000725
  63     -1967.139875   -11.228295    0.003094  0.000709
  64     -1967.139972   -11.288928    0.003030  0.000696
  65     -1967.140066   -11.348413    0.002966  0.000683
  66     -1967.140159   -11.406639    0.002904  0.000668
  67     -1967.140250   -11.463913    0.002843  0.000659
  68     -1967.140339   -11.519754    0.002784  0.000642
  69     -1967.140427   -11.574934    0.002725  0.000632
  70     -1967.140513   -11.628772    0.002668  0.000617
  71     -1967.140598   -11.681774    0.002611  0.000610
  72     -1967.140680   -11.733339    0.002555  0.000593
  73     -1967.140761   -11.784354    0.002500  0.000584
  74     -1967.140840   -11.834091    0.002445  0.000571
  75     -1967.140918   -11.883058    0.002391  0.000562
  76     -1967.140994   -11.930757    0.002338  0.000548
  77     -1967.141069   -11.977763    0.002283  0.000540
  78     -1967.141142   -12.023625    0.002231  0.000526
  79     -1967.141214   -12.068727    0.002177  0.000517
  80     -1967.141284   -12.112766    0.002126  0.000505
  81     -1967.141353   -12.155984    0.002072  0.000495
  82     -1967.141421   -12.198270    0.002021  0.000484
  83     -1967.141487   -12.239663    0.001968  0.000474

Timings for individual modules:

Sum of individual times         ...   113911.750 sec (=1898.529 min)
GTO integral calculation        ...     7042.520 sec (= 117.375 min)   6.2 %
SCF iterations                  ...   100911.787 sec (=1681.863 min)  88.6 %
SCF Gradient evaluation         ...     4836.150 sec (=  80.602 min)   4.2 %
Numerical frequency calculation ...     1121.293 sec (=  18.688 min)   1.0 %
                             ****ORCA TERMINATED NORMALLY****
TOTAL RUN TIME: 1 days 7 hours 32 minutes 3 seconds 487 msec
