18
Coordinates from ORCA-job orca Relaxed Surface Scan Step 1 E -1967.127004163688
  C      -2.953304      1.835231      1.606697
  C      -1.819825      2.606792      1.400499
  C      -0.630386      2.303390      2.070145
  C      -0.585800      1.204683      2.934352
  C      -1.721016      0.434513      3.135905
  C      -2.906303      0.748321      2.474922
  H      -3.872769      2.081500      1.092241
  H      -3.790135      0.144695      2.635199
  H      -1.851154      3.451197      0.723117
  H       0.331068      0.932935      3.443085
  H      -1.681997     -0.413589      3.806631
  C       0.521258      3.185335      1.854098
  N       1.512613      3.304409      2.819493
  H       1.456412      2.738964      3.655019
  H       1.943001      4.210468      2.946290
  H       0.328478      4.094106      1.301638
  H       1.034815      2.403842     -0.009435
  Cu      2.107504      2.367670      1.023145
>
18
Coordinates from ORCA-job orca Relaxed Surface Scan Step 2 E -1967.126585104594
  C      -2.954238      1.836725      1.608753
  C      -1.820187      2.606913      1.399986
  C      -0.629581      2.301727      2.066400
  C      -0.584249      1.202746      2.929905
  C      -1.720030      0.433917      3.134193
  C      -2.906599      0.749448      2.476466
  H      -3.874665      2.084519      1.096733
  H      -3.790839      0.146971      2.638798
  H      -1.852246      3.451745      0.723140
  H       0.333677      0.929595      3.436033
  H      -1.680285     -0.414497      3.804495
  C       0.523698      3.182393      1.848208
  N       1.511045      3.305307      2.818861
  H       1.449991      2.742141      3.655512
  H       1.937191      4.213146      2.946630
  H       0.329607      4.091686      1.297097
  H       1.033772      2.404836      0.004448
  Cu      2.116399      2.365142      1.027383
>
18
Coordinates from ORCA-job orca Relaxed Surface Scan Step 3 E -1967.126064725399
  C      -2.955409      1.838916      1.611557
  C      -1.820752      2.607706      1.400097
  C      -0.628709      2.299969      2.062464
  C      -0.582376      1.200042      2.924606
  C      -1.718687      0.432704      3.131686
  C      -2.906839      0.750757      2.478007
  H      -3.877013      2.088695      1.102606
  H      -3.791535      0.149525      2.642485
  H      -1.853766      3.453407      0.724380
  H       0.336973      0.925100      3.427222
  H      -1.678128     -0.416531      3.800917
  C       0.525670      3.179477      1.842523
  N       1.509181      3.307155      2.818067
  H       1.442157      2.747778      3.656791
  H       1.930321      4.217220      2.946299
  H       0.330645      4.087742      1.290159
  H       1.033502      2.404080      0.019643
  Cu      2.127226      2.360720      1.033531
>
18
Coordinates from ORCA-job orca Relaxed Surface Scan Step 4 E -1967.125608593405
  C      -2.956393      1.840436      1.613620
  C      -1.821274      2.608056      1.399840
  C      -0.628091      2.298556      2.059057
  C      -0.580991      1.198187      2.920377
  C      -1.717734      0.431983      3.129850
  C      -2.907105      0.751741      2.479319
  H      -3.878928      2.091685      1.107065
  H      -3.792121      0.151487      2.645627
  H      -1.855042      3.454296      0.724814
  H       0.339364      0.921900      3.420445
  H      -1.676448     -0.417695      3.798489
  C       0.527667      3.176778      1.837056
  N       1.507944      3.308035      2.816988
  H       1.436101      2.751362      3.657061
  H       1.924655      4.219965      2.945951
  H       0.331638      4.085197      1.285369
  H       1.032302      2.405041      0.034172
  Cu      2.136916      2.357450      1.037941
>
18
Coordinates from ORCA-job orca Relaxed Surface Scan Step 5 E -1967.125162036420
  C      -2.957562      1.842390      1.616237
  C      -1.821953      2.608802      1.400002
  C      -0.627428      2.297055      2.055418
  C      -0.579395      1.195893      2.915487
  C      -1.716571      0.430935      3.127535
  C      -2.907371      0.752840      2.480730
  H      -3.881173      2.095421      1.112514
  H      -3.792717      0.153606      2.648955
  H      -1.856654      3.455861      0.726041
  H       0.342207      0.918004      3.412400
  H      -1.674442     -0.419483      3.795196
  C       0.529738      3.173917      1.831230
  N       1.506338      3.309531      2.815908
  H       1.428963      2.756233      3.657684
  H       1.918174      4.223554      2.945299
  H       0.332736      4.081976      1.279361
  H       1.032307      2.404448      0.049274
  Cu      2.147264      2.353478      1.043770
>
18
Coordinates from ORCA-job orca Relaxed Surface Scan Step 6 E -1967.124707358951
  C      -2.958725      1.844221      1.618715
  C      -1.822691      2.609532      1.400161
  C      -0.626887      2.295692      2.051947
  C      -0.577944      1.193806      2.910848
  C      -1.715508      0.429994      3.125354
  C      -2.907654      0.753860      2.482072
  H      -3.883351      2.098888      1.117668
  H      -3.793279      0.155546      2.652100
  H      -1.858291      3.457349      0.727180
  H       0.344810      0.914383      3.404792
  H      -1.672538     -0.421111      3.792100
  C       0.531726      3.171095      1.825447
  N       1.505098      3.310732      2.814578
  H       1.422289      2.760715      3.657953
  H       1.911799      4.226911      2.944547
  H       0.333613      4.079057      1.273865
  H       1.032269      2.404168      0.064338
  Cu      2.157724      2.349623      1.049376
>
18
Coordinates from ORCA-job orca Relaxed Surface Scan Step 7 E -1967.124313988121
  C      -2.959940      1.846074      1.621248
  C      -1.823522      2.610358      1.400431
  C      -0.626427      2.294429      2.048547
  C      -0.576553      1.191765      2.906212
  C      -1.714457      0.429030      3.123130
  C      -2.907942      0.754836      2.483374
  H      -3.885582      2.102362      1.122889
  H      -3.793806      0.157372      2.655144
  H      -1.860054      3.458976      0.728497
  H       0.347357      0.910823      3.397156
  H      -1.670611     -0.422811      3.788895
  C       0.533689      3.168295      1.819617
  N       1.504013      3.311898      2.813066
  H       1.415619      2.765271      3.658049
  H       1.905316      4.230314      2.943651
  H       0.334436      4.076192      1.268367
  H       1.032467      2.403639      0.079575
  Cu      2.168456      2.345638      1.055194
>
18
Coordinates from ORCA-job orca Relaxed Surface Scan Step 8 E -1967.124003873246
  C      -2.960962      1.847476      1.623196
  C      -1.824244      2.610929      1.400458
  C      -0.626101      2.293404      2.045610
  C      -0.575490      1.190245      2.902446
  C      -1.713659      0.428391      3.121426
  C      -2.908211      0.755637      2.484456
  H      -3.887412      2.105000      1.126963
  H      -3.794253      0.158852      2.657689
  H      -1.861576      3.460115      0.729268
  H       0.349339      0.908162      3.391022
  H      -1.669103     -0.423913      3.786565
  C       0.535421      3.165740      1.814258
  N       1.503817      3.312248      2.811143
  H       1.410233      2.768504      3.657402
  H       1.899550      4.232871      2.942861
  H       0.334694      4.073972      1.264127
  H       1.031470      2.404822      0.094385
  Cu      2.178946      2.342003      1.059766
>
18
Coordinates from ORCA-job orca Relaxed Surface Scan Step 9 E -1967.123642890333
  C      -2.962189      1.849169      1.625564
  C      -1.825184      2.611775      1.400779
  C      -0.625832      2.292366      2.042481
  C      -0.574314      1.188491      2.898169
  C      -1.712735      0.427550      3.119366
  C      -2.908521      0.756493      2.485648
  H      -3.889571      2.108112      1.131791
  H      -3.794719      0.160397      2.660438
  H      -1.863420      3.461704      0.730575
  H       0.351569      0.905032      3.383966
  H      -1.667311     -0.425433      3.783591
  C       0.537186      3.163059      1.808534
  N       1.503294      3.312994      2.809221
  H       1.404122      2.772568      3.656951
  H       1.893186      4.235942      2.941789
  H       0.335198      4.071467      1.259161
  H       1.031661      2.404750      0.109686
  Cu      2.190042      2.338025      1.065330
>
18
Coordinates from ORCA-job orca Relaxed Surface Scan Step 10 E -1967.123316484792
  C      -2.963388      1.850696      1.627748
  C      -1.826151      2.612564      1.401060
  C      -0.625661      2.291465      2.039541
  C      -0.573296      1.186977      2.894229
  C      -1.711926      0.426850      3.117516
  C      -2.908840      0.757266      2.486760
  H      -3.891622      2.110899      1.136224
  H      -3.795152      0.161758      2.662980
  H      -1.865276      3.463154      0.731730
  H       0.353560      0.902299      3.377481
  H      -1.665682     -0.426720      3.780949
  C       0.538871      3.160453      1.802897
  N       1.503255      3.313320      2.807013
  H       1.398413      2.776084      3.656075
  H       1.886967      4.238651      2.940737
  H       0.335378      4.069284      1.254765
  H       1.031656      2.405250      0.124846
  Cu      2.201355      2.334211      1.070491
>
18
Coordinates from ORCA-job orca Relaxed Surface Scan Step 11 E -1967.122928663887
  C      -2.964712      1.852331      1.630105
  C      -1.827267      2.613490      1.401490
  C      -0.625575      2.290607      2.036569
  C      -0.572289      1.185402      2.890119
  C      -1.711094      0.426069      3.115529
  C      -2.909197      0.758040      2.487903
  H      -3.893850      2.113854      1.140978
  H      -3.795599      0.163089      2.665566
  H      -1.867341      3.464841      0.733165
  H       0.355587      0.899430      3.370667
  H      -1.663953     -0.428175      3.778043
  C       0.540477      3.157819      1.797105
  N       1.503265      3.313691      2.804627
  H       1.392464      2.779905      3.655105
  H       1.880392      4.241535      2.939484
  H       0.335524      4.067039      1.250140
  H       1.032306      2.405251      0.140309
  Cu      2.213322      2.330242      1.076136
>
18
Coordinates from ORCA-job orca Relaxed Surface Scan Step 12 E -1967.122665626182
  C      -2.966164      1.854102      1.632677
  C      -1.828537      2.614571      1.402075
  C      -0.625568      2.289801      2.033537
  C      -0.571265      1.183752      2.885797
  C      -1.710219      0.425200      3.113382
  C      -2.909583      0.758833      2.489096
  H      -3.896258      2.117008      1.146097
  H      -3.796051      0.164421      2.668232
  H      -1.869648      3.466772      0.734884
  H       0.357695      0.896405      3.363453
  H      -1.662109     -0.429833      3.774827
  C       0.542027      3.155151      1.791143
  N       1.503311      3.314119      2.802076
  H       1.386133      2.784085      3.654054
  H       1.873435      4.244598      2.938033
  H       0.335606      4.064708      1.245244
  H       1.033626      2.404695      0.156098
  Cu      2.226029      2.326072      1.082334
>
18
Coordinates from ORCA-job orca Relaxed Surface Scan Step 13 E -1967.122553758996
  C      -2.967801      1.856084      1.635583
  C      -1.829992      2.615836      1.402883
  C      -0.625635      2.288979      2.030379
  C      -0.570205      1.181917      2.881121
  C      -1.709287      0.424158      3.110971
  C      -2.910029      0.759662      2.490377
  H      -3.898943      2.120549      1.151841
  H      -3.796555      0.165800      2.671066
  H      -1.872232      3.469038      0.737035
  H       0.359941      0.893033      3.355566
  H      -1.660106     -0.431815      3.771135
  C       0.543508      3.152390      1.784924
  N       1.503275      3.314749      2.799358
  H       1.379231      2.788906      3.652980
  H       1.865922      4.248020      2.936257
  H       0.335659      4.062141      1.239827
  H       1.035984      2.403400      0.172315
  Cu      2.239727      2.321613      1.089421
>
18
Coordinates from ORCA-job orca Relaxed Surface Scan Step 14 E -1967.122267449116
  C      -2.969623      1.858381      1.638940
  C      -1.831715      2.617537      1.404121
  C      -0.625790      2.288289      2.027207
  C      -0.569052      1.179831      2.876056
  C      -1.708124      0.422751      3.108057
  C      -2.910398      0.760452      2.491585
  H      -3.901953      2.124583      1.158436
  H      -3.796925      0.167053      2.673796
  H      -1.875275      3.472023      0.740006
  H       0.362476      0.889289      3.346796
  H      -1.657756     -0.434507      3.766478
  C       0.544435      3.149904      1.778994
  N       1.503155      3.315714      2.796267
  H       1.371407      2.795292      3.652134
  H       1.858109      4.251913      2.933602
  H       0.336062      4.058898      1.232830
  H       1.038870      2.401672      0.189558
  Cu      2.254559      2.315384      1.098175
>
18
Coordinates from ORCA-job orca Relaxed Surface Scan Step 15 E -1967.122157530239
  C      -2.972016      1.861670      1.643745
  C      -1.833856      2.619834      1.406042
  C      -0.625917      2.287171      2.023106
  C      -0.567453      1.176671      2.869096
  C      -1.706631      0.420652      3.104044
  C      -2.910970      0.761583      2.493364
  H      -3.905928      2.130458      1.167744
  H      -3.797582      0.168946      2.677658
  H      -1.879084      3.476170      0.744428
  H       0.365849      0.883596      3.334794
  H      -1.654662     -0.438450      3.759953
  C       0.545959      3.146506      1.771526
  N       1.501590      3.318240      2.793578
  H       1.360833      2.804339      3.651990
  H       1.848222      4.257673      2.930079
  H       0.336526      4.054390      1.223812
  H       1.045970      2.396416      0.207755
  Cu      2.271611      2.308597      1.110325
>
18
Coordinates from ORCA-job orca Relaxed Surface Scan Step 16 E -1967.122102132980
  C      -2.975111      1.866181      1.650466
  C      -1.836782      2.623329      1.409206
  C      -0.626130      2.286122      2.018171
  C      -0.565231      1.172477      2.859884
  C      -1.704284      0.417446      3.098185
  C      -2.911400      0.762788      2.495393
  H      -3.911181      2.138495      1.180739
  H      -3.797963      0.170839      2.682133
  H      -1.884365      3.482460      0.751411
  H       0.370543      0.876305      3.318728
  H      -1.650120     -0.444506      3.750179
  C       0.547314      3.143086      1.763025
  N       1.498307      3.322557      2.790699
  H       1.345894      2.818164      3.652847
  H       1.836716      4.265399      2.924621
  H       0.338811      4.048391      1.210645
  H       1.056570      2.386981      0.228363
  Cu      2.290872      2.297948      1.128345
>
18
Coordinates from ORCA-job orca Relaxed Surface Scan Step 17 E -1967.122125875253
  C      -2.978589      1.871608      1.658546
  C      -1.839946      2.627351      1.413030
  C      -0.626261      2.284551      2.012387
  C      -0.562656      1.167164      2.848974
  C      -1.701679      0.413524      3.091312
  C      -2.911962      0.764316      2.497913
  H      -3.917105      2.148238      1.196266
  H      -3.798583      0.173371      2.687563
  H      -1.890115      3.489748      0.759735
  H       0.375896      0.867352      3.299851
  H      -1.645088     -0.451769      3.738677
  C       0.549043      3.138810      1.753418
  N       1.494007      3.328211      2.787975
  H       1.328440      2.834559      3.654008
  H       1.823314      4.274845      2.918061
  H       0.340826      4.040782      1.195377
  H       1.070611      2.375319      0.249997
  Cu      2.312307      2.286481      1.149950
>
18
Coordinates from ORCA-job orca Relaxed Surface Scan Step 18 E -1967.122229638373
  C      -2.981546      1.875673      1.664824
  C      -1.842719      2.630323      1.415795
  C      -0.626639      2.283316      2.007531
  C      -0.560865      1.163202      2.840329
  C      -1.699857      0.410717      3.086151
  C      -2.912598      0.765546      2.500091
  H      -3.921956      2.155513      1.208338
  H      -3.799232      0.175422      2.692241
  H      -1.894954      3.495122      0.765850
  H       0.379834      0.860799      3.285054
  H      -1.641388     -0.456946      3.730186
  C       0.550304      3.135107      1.744887
  N       1.491883      3.331369      2.784569
  H       1.314746      2.846227      3.653221
  H       1.811710      4.281549      2.912837
  H       0.341566      4.035366      1.184132
  H       1.081215      2.368478      0.269951
  Cu      2.332957      2.277676      1.167052
>
18
Coordinates from ORCA-job orca Relaxed Surface Scan Step 19 E -1967.122420327224
  C      -2.984228      1.878880      1.669930
  C      -1.845298      2.632619      1.417880
  C      -0.627227      2.282285      2.003305
  C      -0.559637      1.160083      2.833164
  C      -1.698618      0.408643      3.082136
  C      -2.913362      0.766628      2.502089
  H      -3.926170      2.161211      1.218136
  H      -3.800000      0.177241      2.696490
  H      -1.899223      3.499239      0.770505
  H       0.382806      0.855654      3.272848
  H      -1.638626     -0.460756      3.723703
  C       0.551209      3.131703      1.737043
  N       1.491360      3.332797      2.780644
  H       1.303707      2.854686      3.651108
  H       1.800991      4.286476      2.908542
  H       0.341368      4.031315      1.175484
  H       1.089697      2.364479      0.288932
  Cu      2.353710      2.271277      1.181100
>
18
Coordinates from ORCA-job orca Relaxed Surface Scan Step 20 E -1967.122704647019
  C      -2.986966      1.881896      1.674854
  C      -1.847955      2.634702      1.419744
  C      -0.627959      2.281234      1.999041
  C      -0.558590      1.157091      2.826148
  C      -1.697582      0.406769      3.078405
  C      -2.914255      0.767749      2.504213
  H      -3.930375      2.166553      1.227584
  H      -3.800914      0.179172      2.700981
  H      -1.903504      3.502989      0.774744
  H       0.385513      0.850742      3.260962
  H      -1.636146     -0.464164      3.717764
  C       0.551906      3.128287      1.729136
  N       1.491355      3.333574      2.776404
  H       1.293230      2.862113      3.648318
  H       1.790130      4.290792      2.904444
  H       0.340715      4.027657      1.167489
  H       1.098308      2.361287      0.307805
  Cu      2.375550      2.266017      1.195005
>
18
Coordinates from ORCA-job orca Relaxed Surface Scan Step 21 E -1967.123103187752
  C      -2.989965      1.885138      1.680215
  C      -1.850858      2.636857      1.421688
  C      -0.628811      2.280010      1.994358
  C      -0.557535      1.153772      2.818479
  C      -1.696554      0.404749      3.074424
  C      -2.915297      0.769019      2.506650
  H      -3.934942      2.172321      1.237874
  H      -3.802005      0.181423      2.706130
  H      -1.908123      3.506908      0.779219
  H       0.388340      0.845336      3.247983
  H      -1.633594     -0.467783      3.711468
  C       0.552463      3.124631      1.720756
  N       1.491219      3.334370      2.771917
  H       1.282146      2.869812      3.645149
  H       1.778392      4.295244      2.900062
  H       0.339965      4.023699      1.158880
  H       1.108323      2.357661      0.327199
  Cu      2.399297      2.261294      1.210590
>
18
Coordinates from ORCA-job orca Relaxed Surface Scan Step 22 E -1967.123605886394
  C      -2.993381      1.888985      1.686565
  C      -1.854112      2.639266      1.423912
  C      -0.629739      2.278382      1.988832
  C      -0.556307      1.149669      2.809402
  C      -1.695404      0.402302      3.069746
  C      -2.916527      0.770606      2.509632
  H      -3.940161      2.179230      1.250094
  H      -3.803358      0.184329      2.712444
  H      -1.913274      3.511370      0.784406
  H       0.391598      0.838713      3.232616
  H      -1.630766     -0.472090      3.704082
  C       0.552926      3.120475      1.711488
  N       1.490371      3.335717      2.767189
  H       1.269543      2.878657      3.641682
  H       1.764889      4.300472      2.895053
  H       0.339303      4.018823      1.148629
  H       1.120867      2.352389      0.347776
  Cu      2.425989      2.257165      1.229491
>
18
Coordinates from ORCA-job orca Relaxed Surface Scan Step 23 E -1967.124233591176
  C      -2.997252      1.893477      1.693972
  C      -1.857733      2.641878      1.426362
  C      -0.630771      2.276250      1.982334
  C      -0.554942      1.144715      2.798819
  C      -1.694188      0.399447      3.064400
  C      -2.917997      0.772585      2.513272
  H      -3.946059      2.187368      1.264373
  H      -3.805040      0.188040      2.720148
  H      -1.918947      3.516305      0.790237
  H       0.395263      0.830778      3.214663
  H      -1.627751     -0.477040      3.695669
  C       0.553251      3.115686      1.701206
  N       1.488752      3.337530      2.762113
  H       1.255518      2.888294      3.637672
  H       1.749277      4.306405      2.889484
  H       0.338700      4.012905      1.136624
  H       1.136097      2.345504      0.369615
  Cu      2.456283      2.254333      1.252078
>
18
Coordinates from ORCA-job orca Relaxed Surface Scan Step 24 E -1967.124981579182
  C      -3.001165      1.896364      1.699417
  C      -1.861645      2.643294      1.427370
  C      -0.632559      2.274791      1.976592
  C      -0.554600      1.141652      2.790624
  C      -1.693811      0.397998      3.060937
  C      -2.919787      0.774175      2.516675
  H      -3.951619      2.192637      1.275113
  H      -3.806828      0.190965      2.727299
  H      -1.924659      3.519239      0.793495
  H       0.397441      0.826019      3.200985
  H      -1.625877     -0.479511      3.690641
  C       0.552608      3.111855      1.691463
  N       1.488919      3.336305      2.755997
  H       1.246238      2.891585      3.631506
  H       1.736173      4.308469      2.886024
  H       0.337422      4.010280      1.128742
  H       1.148306      2.343310      0.389500
  Cu      2.487904      2.255034      1.270657
>
18
Coordinates from ORCA-job orca Relaxed Surface Scan Step 25 E -1967.125908961920
  C      -3.005449      1.899148      1.704828
  C      -1.866106      2.645017      1.428819
  C      -0.634851      2.273701      1.971233
  C      -0.554780      1.139016      2.782947
  C      -1.693824      0.396737      3.057737
  C      -2.921854      0.775581      2.519909
  H      -3.957467      2.197472      1.285452
  H      -3.808777      0.193431      2.733965
  H      -1.930921      3.522305      0.796990
  H       0.399063      0.821771      3.187873
  H      -1.624344     -0.481838      3.685802
  C       0.551296      3.108009      1.681462
  N       1.490320      3.334253      2.748700
  H       1.238565      2.893722      3.624069
  H       1.722871      4.309824      2.882240
  H       0.335403      4.007732      1.120784
  H       1.160176      2.341303      0.409670
  Cu      2.523140      2.257277      1.290560
>
18
Coordinates from ORCA-job orca Relaxed Surface Scan Step 26 E -1967.126986853483
  C      -3.010444      1.902132      1.710808
  C      -1.871317      2.646734      1.430210
  C      -0.637697      2.272527      1.965240
  C      -0.555402      1.136292      2.774666
  C      -1.694215      0.395460      3.054408
  C      -2.924449      0.777146      2.523643
  H      -3.964170      2.202694      1.296922
  H      -3.811227      0.196175      2.741502
  H      -1.938164      3.525425      0.800537
  H       0.400184      0.817123      3.173965
  H      -1.622935     -0.484188      3.680788
  C       0.549454      3.103768      1.670251
  N       1.492370      3.331619      2.740176
  H       1.231570      2.894618      3.615023
  H       1.708367      4.310700      2.877945
  H       0.331802      4.005081      1.112467
  H       1.174280      2.339425      0.430251
  Cu      2.564451      2.261729      1.314237
>
18
Coordinates from ORCA-job orca Relaxed Surface Scan Step 27 E -1967.128266943544
  C      -3.017889      1.908662      1.722992
  C      -1.878949      2.650864      1.434616
  C      -0.641239      2.270041      1.955360
  C      -0.555248      1.129726      2.758892
  C      -1.693627      0.391310      3.046450
  C      -2.927772      0.779604      2.529589
  H      -3.974679      2.214464      1.320128
  H      -3.814350      0.200605      2.753465
  H      -1.949300      3.533079      0.810276
  H       0.403407      0.806137      3.147222
  H      -1.619134     -0.491627      3.667832
  C       0.547209      3.096943      1.653327
  N       1.490371      3.333067      2.729121
  H       1.215708      2.904755      3.604489
  H       1.686769      4.316593      2.867181
  H       0.329408      3.996834      1.092904
  H       1.200074      2.328238      0.456630
  Cu      2.621699      2.265165      1.362565
>
18
Coordinates from ORCA-job orca Relaxed Surface Scan Step 28 E -1967.137762668336
  C      -3.074983      2.076593      1.863350
  C      -1.886911      2.685682      1.472284
  C      -0.656270      2.148370      1.852276
  C      -0.634177      0.987032      2.629947
  C      -1.818698      0.382324      3.025166
  C      -3.043245      0.926037      2.642338
  H      -4.022974      2.502582      1.560584
  H      -3.966533      0.450159      2.946931
  H      -1.913436      3.584832      0.868433
  H       0.312651      0.541229      2.912176
  H      -1.789171     -0.519120      3.623800
  C       0.598573      2.829033      1.435055
  N       1.512315      3.212282      2.528244
  H       1.723520      2.399402      3.102454
  H       1.024471      3.863306      3.145087
  H       0.425628      3.679147      0.785699
  H       1.424851      1.873577      0.545452
  Cu      3.206850      4.011993      1.973763
>
18
Coordinates from ORCA-job orca Relaxed Surface Scan Step 29 E -1967.140883354547
  C      -3.073425      2.079194      1.865897
  C      -1.884669      2.685705      1.472811
  C      -0.654544      2.145279      1.849502
  C      -0.633617      0.983378      2.626257
  C      -1.818810      0.381152      3.023730
  C      -3.042853      0.927951      2.643956
  H      -4.020992      2.507758      1.565423
  H      -3.966564      0.453985      2.950251
  H      -1.910465      3.585379      0.869666
  H       0.312742      0.535372      2.906709
  H      -1.790146     -0.520729      3.621773
  C       0.602916      2.822426      1.429600
  N       1.510511      3.213315      2.526714
  H       1.724259      2.402225      3.102550
  H       1.016456      3.861890      3.140942
  H       0.428306      3.672034      0.779616
  H       1.420899      1.875182      0.558247
  Cu      3.202456      4.022963      1.979398
>
18
Coordinates from ORCA-job orca Relaxed Surface Scan Step 30 E -1967.144035360475
  C      -3.068079      2.093307      1.885111
  C      -1.877558      2.690930      1.483196
  C      -0.649325      2.133107      1.839323
  C      -0.631344      0.963308      2.603997
  C      -1.817996      0.369745      3.010147
  C      -3.040461      0.933943      2.651075
  H      -4.014557      2.534647      1.600079
  H      -3.965564      0.466727      2.963516
  H      -1.900957      3.596391      0.888648
  H       0.314694      0.504141      2.867393
  H      -1.792047     -0.538754      3.598224
  C       0.613053      2.802421      1.417681
  N       1.494140      3.232685      2.523717
  H       1.700651      2.438033      3.124847
  H       0.980428      3.892087      3.109464
  H       0.444399      3.633397      0.742191
  H       1.442162      1.843438      0.606537
  Cu      3.190821      4.044907      1.997895
>
18
Coordinates from ORCA-job orca Relaxed Surface Scan Step 31 E -1967.147029939763
  C      -3.066206      2.096342      1.889086
  C      -1.874991      2.691532      1.485497
  C      -0.647418      2.129549      1.837025
  C      -0.630872      0.958130      2.599102
  C      -1.818139      0.366873      3.007109
  C      -3.039916      0.935139      2.652349
  H      -4.012196      2.540848      1.607332
  H      -3.965513      0.469739      2.966055
  H      -1.897364      3.598396      0.893013
  H       0.314790      0.496409      2.859556
  H      -1.793201     -0.542887      3.593300
  C       0.617561      2.795160      1.413091
  N       1.491279      3.236423      2.522176
  H       1.696256      2.446470      3.130068
  H       0.972367      3.898205      3.100330
  H       0.448293      3.623809      0.734494
  H       1.439095      1.844041      0.622092
  Cu      3.188637      4.050283      2.001364
>
18
Coordinates from ORCA-job orca Relaxed Surface Scan Step 32 E -1967.150060658124
  C      -3.063270      2.101966      1.896313
  C      -1.871005      2.693184      1.489792
  C      -0.644674      2.123899      1.833337
  C      -0.630267      0.949463      2.590631
  C      -1.818494      0.362081      3.001768
  C      -3.039086      0.937537      2.654749
  H      -4.008416      2.551857      1.620315
  H      -3.965500      0.475182      2.970554
  H      -1.891786      3.602304      0.900672
  H       0.314689      0.482953      2.845216
  H      -1.795228     -0.550148      3.584189
  C       0.623481      2.784760      1.407385
  N       1.485716      3.243490      2.520098
  H       1.689281      2.460833      3.137911
  H       0.958133      3.908273      3.086588
  H       0.454745      3.607360      0.720971
  H       1.441273      1.837463      0.645761
  Cu      3.182866      4.062004      2.006790
>
18
Coordinates from ORCA-job orca Relaxed Surface Scan Step 33 E -1967.153098932054
  C      -3.047576      2.133168      1.939508
  C      -1.849866      2.704551      1.520851