18
Coordinates from ORCA-job orca Relaxed Surface Scan Step 1
  C      -2.990909      1.813853      1.613407
  C      -1.907263      2.666906      1.510052
  C      -0.730145      2.403423      2.234397
  C      -0.659666      1.266490      3.061231
  C      -1.747117      0.422589      3.158643
  C      -2.911303      0.692397      2.434686
  H      -3.895532      2.017786      1.056985
  H      -3.757520      0.022380      2.514259
  H      -1.954714      3.540084      0.872035
  H       0.237072      1.037973      3.622017
  H      -1.696141     -0.450610      3.794768
  C       0.347205      3.333425      2.080242
  N       1.522972      3.296040      2.748599
  H       0.163719      4.245635      1.524498
  H       1.760899      2.043542     -0.536671
  H       2.057315      4.155019      2.833821
  H       1.672707      2.625622      3.495349
  Cu      1.910880      2.501906      0.894721
>
18
Coordinates from ORCA-job orca Relaxed Surface Scan Step 2
  C      -2.988987      1.813082      1.611767
  C      -1.904190      2.664565      1.506888
  C      -0.727638      2.401246      2.231892
  C      -0.658553      1.265793      3.060549
  C      -1.747154      0.423344      3.159572
  C      -2.911013      0.693130      2.435243
  H      -3.893252      2.017234      1.054824
  H      -3.758112      0.024402      2.516199
  H      -1.950509      3.536556      0.867154
  H       0.237923      1.036933      3.621644
  H      -1.697147     -0.448703      3.797368
  C       0.350924      3.330697      2.076933
  N       1.524429      3.295546      2.750780
  H       0.166487      4.243560      1.522608
  H       1.740633      2.052491     -0.533848
  H       2.056799      4.155434      2.838420
  H       1.671297      2.625694      3.498513
  Cu      1.910522      2.503454      0.896535
>
18
Coordinates from ORCA-job orca Relaxed Surface Scan Step 3
  C      -2.986882      1.812242      1.609927
  C      -1.901103      2.662407      1.503848
  C      -0.725217      2.399341      2.229713
  C      -0.657534      1.265342      3.060187
  C      -1.747102      0.424076      3.160444
  C      -2.910470      0.693686      2.435432
  H      -3.890752      2.016446      1.052344
  H      -3.758333      0.026050      2.517364
  H      -1.946387      3.533273      0.862500
  H       0.238563      1.036461      3.621900
  H      -1.698063     -0.446864      3.799838
  C       0.354598      3.328117      2.074088
  N       1.525960      3.294952      2.753067
  H       0.170136      4.241474      1.520603
  H       1.718832      2.061324     -0.531081
  H       2.056449      4.155736      2.842605
  H       1.670281      2.626029      3.502030
  Cu      1.909484      2.504370      0.898232
>
18
Coordinates from ORCA-job orca Relaxed Surface Scan Step 4
  C      -2.984738      1.811301      1.607991
  C      -1.897950      2.660105      1.500721
  C      -0.722787      2.397361      2.227580
  C      -0.656597      1.264915      3.060004
  C      -1.747179      0.424899      3.161518
  C      -2.909990      0.694265      2.435694
  H      -3.888140      2.015511      1.049634
  H      -3.758642      0.027762      2.518654
  H      -1.942100      3.529759      0.857642
  H       0.239041      1.036024      3.622468
  H      -1.699197     -0.444833      3.802648
  C       0.358268      3.325467      2.071278
  N       1.527540      3.294195      2.755271
  H       0.173516      4.239383      1.518833
  H       1.697191      2.071000     -0.528476
  H       2.056234      4.155800      2.846804
  H       1.669335      2.626016      3.505283
  Cu      1.908656      2.505530      0.899492
>
18
Coordinates from ORCA-job orca Relaxed Surface Scan Step 5
  C      -2.982560      1.810293      1.605991
  C      -1.894779      2.657752      1.497566
  C      -0.720378      2.395383      2.225493
  C      -0.655719      1.264549      3.059938
  C      -1.747308      0.425770      3.162685
  C      -2.909512      0.694826      2.435953
  H      -3.885463      2.014452      1.046791
  H      -3.758949      0.029453      2.519909
  H      -1.937774      3.526153      0.852706
  H       0.239413      1.035728      3.623257
  H      -1.700416     -0.442700      3.805617
  C       0.361936      3.322813      2.068535
  N       1.529142      3.293315      2.757419
  H       0.176934      4.237349      1.517219
  H       1.675464      2.081105     -0.525892
  H       2.056050      4.155728      2.850957
  H       1.668476      2.625804      3.508388
  Cu      1.907902      2.506688      0.900508
>
18
Coordinates from ORCA-job orca Relaxed Surface Scan Step 6
  C      -2.980320      1.809202      1.603889
  C      -1.891564      2.655341      1.494385
  C      -0.717982      2.393420      2.223499
  C      -0.654909      1.264262      3.060038
  C      -1.747501      0.426708      3.163970
  C      -2.909027      0.695365      2.436188
  H      -3.882666      2.013240      1.043726
  H      -3.759238      0.031104      2.521095
  H      -1.933352      3.522434      0.847678
  H       0.239645      1.035585      3.624353
  H      -1.701750     -0.440439      3.808781
  C       0.365595      3.320166      2.065889
  N       1.530803      3.292304      2.759486
  H       0.180292      4.235382      1.515826
  H       1.653556      2.091660     -0.523338
  H       2.055968      4.155482      2.855064
  H       1.667751      2.625350      3.511287
  Cu      1.907158      2.507893      0.901222
>
18
Coordinates from ORCA-job orca Relaxed Surface Scan Step 7
  C      -2.978107      1.808105      1.601805
  C      -1.888376      2.652918      1.491208
  C      -0.715604      2.391449      2.221496
  C      -0.654112      1.263978      3.060134
  C      -1.747707      0.427655      3.165263
  C      -2.908561      0.695911      2.436444
  H      -3.879900      2.012018      1.040689
  H      -3.759548      0.032770      2.522312
  H      -1.928962      3.518693      0.842651
  H       0.239864      1.035453      3.625447
  H      -1.703094     -0.438158      3.811958
  C       0.369231      3.317517      2.063238
  N       1.532442      3.291262      2.761499
  H       0.183613      4.233427      1.514460
  H       1.631821      2.102365     -0.520588
  H       2.055860      4.155199      2.859116
  H       1.667029      2.624834      3.514092
  Cu      1.906570      2.509064      0.901817
>
18
Coordinates from ORCA-job orca Relaxed Surface Scan Step 8
  C      -2.976378      1.807348      1.599955
  C      -1.886338      2.651778      1.489196
  C      -0.714006      2.390643      2.220214
  C      -0.653429      1.264120      3.060108
  C      -1.747360      0.428181      3.165478
  C      -2.907687      0.695964      2.435724
  H      -3.877796      2.010996      1.038130
  H      -3.758930      0.033178      2.521791
  H      -1.926319      3.516938      0.839777
  H       0.240125      1.035996      3.626250
  H      -1.703389     -0.436941      3.813148
  C       0.371367      3.316332      2.061627
  N       1.534059      3.290645      2.762210
  H       0.186532      4.232213      1.512600
  H       1.612584      2.109079     -0.512150
  H       2.057404      4.154560      2.859905
  H       1.667817      2.624906      3.515487
  Cu      1.904204      2.508524      0.903590
>
18
Coordinates from ORCA-job orca Relaxed Surface Scan Step 9
  C      -2.974050      1.806090      1.598015
  C      -1.882292      2.648089      1.484913
  C      -0.710952      2.387346      2.217186
  C      -0.652446      1.263172      3.059878
  C      -1.748143      0.429491      3.167735
  C      -2.907874      0.697165      2.437273
  H      -3.874886      2.009893      1.035287
  H      -3.760492      0.036418      2.525345
  H      -1.920584      3.511239      0.832706
  H       0.240537      1.034683      3.626809
  H      -1.705680     -0.433690      3.818110
  C       0.376402      3.311989      2.057429
  N       1.535711      3.289150      2.765083
  H       0.189555      4.229421      1.511664
  H       1.590716      2.123681     -0.513969
  H       2.055068      4.154872      2.867227
  H       1.665477      2.623770      3.519252
  Cu      1.906393      2.511682      0.903097
>
18
Coordinates from ORCA-job orca Relaxed Surface Scan Step 10
  C      -2.972352      1.805333      1.596200
  C      -1.880302      2.646972      1.482946
  C      -0.709375      2.386565      2.215903
  C      -0.651778      1.263341      3.059835
  C      -1.747788      0.430011      3.167919
  C      -2.906999      0.697196      2.436540
  H      -3.872831      2.008870      1.032792
  H      -3.759853      0.036776      2.524786
  H      -1.918015      3.509528      0.829917
  H       0.240792      1.035318      3.627607
  H      -1.705956     -0.432481      3.819255
  C       0.378526      3.310837      2.055811
  N       1.537271      3.288508      2.765728
  H       0.192605      4.228226      1.509721
  H       1.571673      2.130464     -0.505237
  H       2.056607      4.154180      2.867890
  H       1.666169      2.623843      3.520604
  Cu      1.904066      2.510974      0.904822
>
18
Coordinates from ORCA-job orca Relaxed Surface Scan Step 11
  C      -2.970017      1.804145      1.594302
  C      -1.876355      2.643494      1.478888
  C      -0.706390      2.383483      2.213034
  C      -0.650753      1.262509      3.059587
  C      -1.748401      0.431260      3.169946
  C      -2.907031      0.698311      2.437878
  H      -3.869936      2.007819      1.030025
  H      -3.761149      0.039778      2.527929
  H      -1.912454      3.504137      0.823227
  H       0.241292      1.034185      3.628104
  H      -1.707976     -0.429417      3.823785
  C       0.383475      3.306768      2.051824
  N       1.538741      3.287166      2.768626
  H       0.195902      4.225543      1.508616
  H       1.549204      2.144393     -0.506246
  H       2.054407      4.154465      2.874798
  H       1.663627      2.623024      3.524515
  Cu      1.906274      2.513397      0.904200
>
18
Coordinates from ORCA-job orca Relaxed Surface Scan Step 12
  C      -2.968357      1.803394      1.592509
  C      -1.874418      2.642400      1.476957
  C      -0.704853      2.382723      2.211766
  C      -0.650105      1.262693      3.059539
  C      -1.748059      0.431786      3.170122
  C      -2.906174      0.698342      2.437146
  H      -3.867919      2.006789      1.027550
  H      -3.760518      0.040121      2.527358
  H      -1.909947      3.502443      0.820475
  H       0.241532      1.034837      3.628883
  H      -1.708251     -0.428207      3.824906
  C       0.385564      3.305616      2.050190
  N       1.540302      3.286507      2.769203
  H       0.198900      4.224344      1.506659
  H       1.530422      2.151231     -0.497197
  H       2.055967      4.153748      2.875352
  H       1.664346      2.623081      3.525785
  Cu      1.904028      2.512612      0.905837
>
18
Coordinates from ORCA-job orca Relaxed Surface Scan Step 13
  C      -2.966045      1.802259      1.590643
  C      -1.870586      2.639093      1.473091
  C      -0.701960      2.379819      2.209059
  C      -0.649092      1.261961      3.059319
  C      -1.748593      0.433011      3.172017
  C      -2.906124      0.699399      2.438339
  H      -3.865048      2.005758      1.024805
  H      -3.761648      0.042947      2.530193
  H      -1.904562      3.497273      0.814073
  H       0.242022      1.033822      3.629410
  H      -1.710115     -0.425246      3.829171
  C       0.390421      3.301708      2.046337
  N       1.541707      3.285242      2.771981
  H       0.202047      4.221779      1.505658
  H       1.507881      2.164739     -0.497398
  H       2.053857      4.154015      2.881867
  H       1.661831      2.622354      3.529546
  Cu      1.906468      2.514527      0.904930
>
18
Coordinates from ORCA-job orca Relaxed Surface Scan Step 14
  C      -2.964437      1.801514      1.588888
  C      -1.868711      2.638015      1.471191
  C      -0.700462      2.379070      2.207783
  C      -0.648463      1.262158      3.059252
  C      -1.748263      0.433543      3.172187
  C      -2.905293      0.699430      2.437625
  H      -3.863092      2.004723      1.022381
  H      -3.761034      0.043280      2.529643
  H      -1.902131      3.495588      0.811351
  H       0.242257      1.034492      3.630146
  H      -1.710385     -0.424030      3.830275
  C       0.392478      3.300550      2.044666
  N       1.543249      3.284557      2.772490
  H       0.205027      4.220571      1.503653
  H       1.489457      2.171706     -0.488054
  H       2.055419      4.153262      2.882321
  H       1.662526      2.622388      3.530741
  Cu      1.904317      2.513643      0.906499
>
18
Coordinates from ORCA-job orca Relaxed Surface Scan Step 15
  C      -2.962183      1.800610      1.587155
  C      -1.865060      2.635105      1.467635
  C      -0.697626      2.376431      2.205200
  C      -0.647316      1.261416      3.058830
  C      -1.748513      0.434582      3.173641
  C      -2.905047      0.700437      2.438537
  H      -3.860363      2.003974      1.019929
  H      -3.761864      0.045901      2.531999
  H      -1.897092      3.491023      0.805562
  H       0.242985      1.033391      3.630270
  H      -1.711803     -0.421506      3.833741
  C       0.397105      3.296931      2.041100
  N       1.544380      3.283761      2.775476
  H       0.208277      4.217773      1.501960
  H       1.466353      2.184029     -0.487062
  H       2.053562      4.153762      2.888203
  H       1.659899      2.622558      3.535037
  Cu      1.906764      2.514282      0.905828
>
18
Coordinates from ORCA-job orca Relaxed Surface Scan Step 16
  C      -2.960452      1.799853      1.585697
  C      -1.862462      2.633108      1.464964
  C      -0.695517      2.374702      2.203058
  C      -0.646344      1.261106      3.058281
  C      -1.748391      0.435333      3.174350
  C      -2.904590      0.700979      2.438843
  H      -3.858346      2.003242      1.018006
  H      -3.762044      0.047418      2.533255
  H      -1.893613      3.487915      0.801400
  H       0.243707      1.033089      3.630143
  H      -1.712429     -0.419714      3.835852
  C       0.400492      3.294616      2.038251
  N       1.545137      3.283122      2.777438
  H       0.211824      4.215844      1.499763
  H       1.446624      2.194043     -0.481612
  H       2.053209      4.153555      2.891169
  H       1.657943      2.622760      3.538027
  Cu      1.907712      2.513487      0.906156
>
18
Coordinates from ORCA-job orca Relaxed Surface Scan Step 17
  C      -2.959094      1.799266      1.584622
  C      -1.860172      2.631143      1.462348
  C      -0.693494      2.372816      2.200567
  C      -0.645314      1.260561      3.057278
  C      -1.748279      0.436000      3.174948
  C      -2.904364      0.701649      2.439459
  H      -3.856876      2.002838      1.016798
  H      -3.762523      0.049197      2.535103
  H      -1.890581      3.484895      0.797379
  H       0.244661      1.032361      3.629213
  H      -1.712938     -0.418049      3.837785
  C       0.403806      3.292075      2.034871
  N       1.545869      3.282428      2.778973
  H       0.214941      4.213786      1.497328
  H       1.429574      2.203883     -0.475452
  H       2.052288      4.153557      2.894138
  H       1.655798      2.622992      3.540680
  Cu      1.909158      2.513064      0.907005
>
18
Coordinates from ORCA-job orca Relaxed Surface Scan Step 18
  C      -2.957812      1.798864      1.583680
  C      -1.857941      2.629327      1.459788
  C      -0.691443      2.370920      2.197979
  C      -0.644137      1.259844      3.056006
  C      -1.748023      0.436542      3.175310
  C      -2.904106      0.702397      2.440057
  H      -3.855564      2.002726      1.015893
  H      -3.762995      0.051096      2.536987
  H      -1.887689      3.482124      0.793552
  H       0.245869      1.031282      3.627771
  H      -1.713230     -0.416635      3.839309
  C       0.407038      3.289498      2.031452
  N       1.546537      3.282021      2.780672
  H       0.217952      4.211393      1.494352
  H       1.412507      2.213058     -0.468930
  H       2.051282      4.153879      2.897081
  H       1.653546      2.623883      3.543820
  Cu      1.910671      2.512241      0.908260
>
18
Coordinates from ORCA-job orca Relaxed Surface Scan Step 19
  C      -2.956686      1.798528      1.582925
  C      -1.855850      2.627532      1.457268
  C      -0.689436      2.368986      2.195233
  C      -0.642914      1.259070      3.054525
  C      -1.747727      0.437054      3.175606
  C      -2.903917      0.703179      2.440790
  H      -3.854493      2.002747      1.015337
  H      -3.763539      0.053058      2.539117
  H      -1.885010      3.479402      0.789808
  H       0.247215      1.030098      3.625962
  H      -1.713400     -0.415279      3.840726
  C       0.410262      3.286899      2.027821
  N       1.547018      3.281604      2.782297
  H       0.221011      4.209020      1.491223
  H       1.396468      2.222271     -0.462137
  H       2.050054      4.154206      2.899961
  H       1.650890      2.624808      3.546937
  Cu      1.912514      2.511277      0.909639
>
18
Coordinates from ORCA-job orca Relaxed Surface Scan Step 20
  C      -2.955653      1.798289      1.582299
  C      -1.853852      2.625818      1.454813
  C      -0.687451      2.367053      2.192418
  C      -0.641636      1.258221      3.052878
  C      -1.747368      0.437503      3.175786
  C      -2.903739      0.703991      2.441555
  H      -3.853577      2.002927      1.015029
  H      -3.764096      0.055062      2.541319
  H      -1.882489      3.476819      0.786210
  H       0.248688      1.028769      3.623846
  H      -1.713442     -0.414049      3.841937
  C       0.413448      3.284290      2.024106
  N       1.547390      3.281295      2.783926
  H       0.224032      4.206546      1.487858
  H       1.380914      2.231225     -0.455028
  H       2.048718      4.154649      2.902740
  H       1.648055      2.625974      3.550164
  Cu      1.914517      2.510080      0.911183
>
18
Coordinates from ORCA-job orca Relaxed Surface Scan Step 21
  C      -2.954687      1.798102      1.581760
  C      -1.851930      2.624155      1.452408
  C      -0.685496      2.365129      2.189559
  C      -0.640330      1.257347      3.051134
  C      -1.746969      0.437923      3.175903
  C      -2.903571      0.704814      2.442348
  H      -3.852769      2.003191      1.014883
  H      -3.764651      0.057074      2.543571
  H      -1.880089      3.474320      0.782709
  H       0.250231      1.027385      3.621554
  H      -1.713396     -0.412883      3.843037
  C       0.416608      3.281690      2.020325
  N       1.547671      3.281020      2.785520
  H       0.227045      4.204063      1.484396
  H       1.365788      2.240063     -0.447677
  H       2.047302      4.155121      2.905431
  H       1.645053      2.627228      3.553394
  Cu      1.916649      2.508718      0.912785
>
18
Coordinates from ORCA-job orca Relaxed Surface Scan Step 22
  C      -2.953762      1.797965      1.581278
  C      -1.850068      2.622560      1.450067
  C      -0.683570      2.363241      2.186704
  C      -0.639007      1.256465      3.049334
  C      -1.746530      0.438314      3.175952
  C      -2.903389      0.705635      2.443127
  H      -3.852022      2.003525      1.014839
  H      -3.765174      0.059063      2.545794
  H      -1.877785      3.471926      0.779322
  H       0.251820      1.025973      3.619155
  H      -1.713271     -0.411787      3.844012
  C       0.419741      3.279114      2.016528
  N       1.547892      3.280798      2.787086
  H       0.230036      4.201573      1.480863
  H       1.350888      2.248700     -0.440074
  H       2.045853      4.155635      2.908014
  H       1.641963      2.628588      3.556623
  Cu      1.918845      2.507172      0.914417
>
18
Coordinates from ORCA-job orca Relaxed Surface Scan Step 23
  C      -2.952850      1.797857      1.580820
  C      -1.848246      2.621030      1.447789
  C      -0.681671      2.361402      2.183884
  C      -0.637680      1.255599      3.047524
  C      -1.746061      0.438686      3.175953
  C      -2.903184      0.706442      2.443866
  H      -3.851295      2.003893      1.014830
  H      -3.765648      0.061003      2.547934
  H      -1.875546      3.469627      0.776040
  H       0.253419      1.024577      3.616735
  H      -1.713091     -0.410742      3.844895
  C       0.422848      3.276581      2.012750
  N       1.548079      3.280613      2.788611
  H       0.233003      4.199111      1.477331
  H       1.336071      2.257132     -0.432235
  H       2.044407      4.156171      2.910489
  H       1.638844      2.630004      3.559806
  Cu      1.921063      2.505474      0.916018
>
18
Coordinates from ORCA-job orca Relaxed Surface Scan Step 24
  C      -2.951939      1.797780      1.580369
  C      -1.846459      2.619579      1.445589
  C      -0.679804      2.359632      2.181135
  C      -0.636358      1.254765      3.045732
  C      -1.745564      0.439040      3.175900
  C      -2.902943      0.707223      2.444541
  H      -3.850565      2.004286      1.014822
  H      -3.766055      0.062869      2.549942
  H      -1.873362      3.467437      0.772879
  H       0.255012      1.023217      3.614332
  H      -1.712857     -0.409756      3.845670
  C       0.425929      3.274101      2.009016
  N       1.548250      3.280478      2.790094
  H       0.235943      4.196686      1.473820
  H       1.321227      2.265283     -0.424140
  H       2.042987      4.156738      2.912841
  H       1.635742      2.631483      3.562933
  Cu      1.923274      2.503619      0.917565
>
18
Coordinates from ORCA-job orca Relaxed Surface Scan Step 25
  C      -2.951019      1.797732      1.579918
  C      -1.844705      2.618219      1.443481
  C      -0.677970      2.357945      2.178477
  C      -0.635046      1.253972      3.043973
  C      -1.745038      0.439373      3.175792
  C      -2.902658      0.707971      2.445132
  H      -3.849815      2.004699      1.014792
  H      -3.766379      0.064639      2.551774
  H      -1.871227      3.465373      0.769856
  H       0.256588      1.021908      3.611977
  H      -1.712573     -0.408833      3.846330
  C       0.428983      3.271688      2.005343
  N       1.548417      3.280399      2.791529
  H       0.238859      4.194311      1.470343
  H       1.306290      2.273100     -0.415772
  H       2.041614      4.157339      2.915058
  H       1.632685      2.633024      3.565993
  Cu      1.925455      2.501601      0.919045
>
18
Coordinates from ORCA-job orca Relaxed Surface Scan Step 26
  C      -2.950092      1.797714      1.579464
  C      -1.842986      2.616953      1.441471
  C      -0.676175      2.356348      2.175921
  C      -0.633749      1.253224      3.042254
  C      -1.744487      0.439686      3.175624
  C      -2.902331      0.708682      2.445632
  H      -3.849046      2.005131      1.014736
  H      -3.766620      0.066306      2.553420
  H      -1.869145      3.463439      0.766976
  H       0.258142      1.020648      3.609673
  H      -1.712241     -0.407981      3.846867
  C       0.432010      3.269345      2.001735
  N       1.548588      3.280385      2.792916
  H       0.241748      4.191986      1.466902
  H       1.291242      2.280544     -0.407115
  H       2.040295      4.157985      2.917135
  H       1.629694      2.634630      3.568980
  Cu      1.927612      2.499436      0.920449
>
18
Coordinates from ORCA-job orca Relaxed Surface Scan Step 27
  C      -2.949161      1.797726      1.579010
  C      -1.841299      2.615775      1.439553
  C      -0.674413      2.354829      2.173463
  C      -0.632467      1.252510      3.040574
  C      -1.743917      0.439975      3.175403
  C      -2.901971      0.709359      2.446051
  H      -3.848258      2.005584      1.014656
  H      -3.766790      0.067879      2.554893
  H      -1.867106      3.461624      0.764232
  H       0.259674      1.019424      3.607419
  H      -1.711871     -0.407198      3.847289
  C       0.435010      3.267062      1.998193
  N       1.548760      3.280437      2.794253
  H       0.244607      4.189698      1.463490
  H       1.276108      2.287656     -0.398180
  H       2.039020      4.158682      2.919074
  H       1.626775      2.636305      3.571891
  Cu      1.929757      2.497132      0.921777
>
18
Coordinates from ORCA-job orca Relaxed Surface Scan Step 28
  C      -2.948222      1.797760      1.578550
  C      -1.839642      2.614677      1.437725
  C      -0.672688      2.353389      2.171107
  C      -0.631205      1.251836      3.038942
  C      -1.743335      0.440246      3.175138
  C      -2.901578      0.710002      2.446390
  H      -3.847448      2.006047      1.014542
  H      -3.766894      0.069358      2.556195
  H      -1.865105      3.459917      0.761613
  H       0.261174      1.018247      3.605231
  H      -1.711474     -0.406475      3.847615
  C       0.437982      3.264838      1.994717
  N       1.548938      3.280545      2.795536
  H       0.247435      4.187449      1.460117
  H       1.260893      2.294474     -0.388981
  H       2.037795      4.159416      2.920877
  H       1.623940      2.638026      3.574714
  Cu      1.931894      2.494707      0.923011
>
18
Coordinates from ORCA-job orca Relaxed Surface Scan Step 29
  C      -2.947057      1.797185      1.577177
  C      -1.838233      2.613745      1.436054
  C      -0.671477      2.352640      2.169730
  C      -0.630651      1.251968      3.038630
  C      -1.743046      0.440710      3.175176
  C      -2.900971      0.710085      2.445863
  H      -3.846063      2.005258      1.012728
  H      -3.766479      0.069740      2.555924
  H      -1.863279      3.458413      0.759206
  H       0.261505      1.018688      3.605393
  H      -1.711597     -0.405443      3.848395
  C       0.439787      3.263538      1.992681
  N       1.550343      3.279870      2.795587
  H       0.250007      4.186059      1.457757
  H       1.245587      2.301669     -0.377682
  H       2.039138      4.158744      2.920705
  H       1.624517      2.638205      3.575474
  Cu      1.930429      2.493387      0.924244
>
18
Coordinates from ORCA-job orca Relaxed Surface Scan Step 30
  C      -2.946487      1.798055      1.577767
  C      -1.836439      2.612653      1.434203
  C      -0.669267      2.350421      2.166385
  C      -0.628646      1.250187      3.035465
  C      -1.742185      0.440624      3.174414
  C      -2.900890      0.711405      2.447057
  H      -3.846005      2.007323      1.014558
  H      -3.767266      0.072538      2.558832
  H      -1.861251      3.456765      0.756633
  H       0.264288      1.015268      3.600372
  H      -1.710667     -0.405328      3.847896
  C       0.443751      3.260198      1.987712
  N       1.549613      3.281083      2.797864
  H       0.252271      4.182508      1.453100
  H       1.231339      2.307153     -0.369756
  H       2.035070      4.161523      2.924383
  H       1.618936      2.642073      3.580292
  Cu      1.936291      2.490009      0.925863
>
18
Coordinates from ORCA-job orca Relaxed Surface Scan Step 31
  C      -2.945381      1.797506      1.576497
  C      -1.835147      2.611830      1.432679
  C      -0.668111      2.349794      2.165031
  C      -0.628096      1.250437      3.035129
  C      -1.741840      0.441085      3.174385
  C      -2.900250      0.711422      2.446509
  H      -3.844712      2.006555      1.012893
  H      -3.766746      0.072746      2.558466
  H      -1.859604      3.455407      0.754422
  H       0.264657      1.015913      3.600488
  H      -1.710661     -0.404348      3.848541
  C       0.445617      3.259005      1.985567
  N       1.550843      3.280338      2.797780
  H       0.255158      4.181355      1.450788
  H       1.216399      2.313920     -0.358120
  H       2.036265      4.160752      2.924116
  H       1.619093      2.642138      3.580876
  Cu      1.934976      2.488607      0.926992
>
18
Coordinates from ORCA-job orca Relaxed Surface Scan Step 32
  C      -2.945125      1.798679      1.577564
  C      -1.833675      2.611022      1.431185
  C      -0.666034      2.347622      2.161605
  C      -0.625964      1.248443      3.031502
  C      -1.740821      0.440757      3.173247
  C      -2.900240      0.712754      2.447802
  H      -3.845142      2.009150      1.015565
  H      -3.767557      0.075509      2.561509
  H      -1.858078      3.454246      0.752464
  H       0.267770      1.012016      3.594566
  H      -1.709350     -0.404730      3.847337
  C       0.449537      3.255712      1.980357
  N       1.549487      3.282080      2.800160
  H       0.257676      4.177592      1.445349
  H       1.203739      2.318722     -0.349474
  H       2.031836      4.163990      2.927213
  H       1.612594      2.646878      3.586036
  Cu      1.941807      2.484018      0.929052
>
18
Coordinates from ORCA-job orca Relaxed Surface Scan Step 33
  C      -2.944082      1.798219      1.576372
  C      -1.832458      2.610295      1.429708
  C      -0.664896      2.347045      2.160202
  C      -0.625359      1.248668      3.031022
  C      -1.740393      0.441161      3.173071
  C      -2.899581      0.712779      2.447229
  H      -3.843966      2.008525      1.014085
  H      -3.767005      0.075713      2.561131
  H      -1.856573      3.453052      0.750388
  H       0.268244      1.012604      3.594451
  H      -1.709201     -0.403876      3.847746
  C       0.451344      3.254601      1.978200
  N       1.550625      3.281439      2.800066
  H       0.260536      4.176483      1.442963
  H       1.189028      2.324737     -0.337309
  H       2.032961      4.163315      2.926886