18
Properties=species:S:1:pos:R:3 energy=-1967.19620164574 pbc="F F F"
C       -1.92570900      -0.56245400      -0.99202500
C       -0.83295700       0.29398800      -1.10141400
C        0.33391900       0.03962200      -0.38796300
C        0.39803200      -1.09776600       0.43257900
C       -0.69915800      -1.94777500       0.54944200
C       -1.86488400      -1.67574400      -0.16092800
H       -2.82827700      -0.35522800      -1.55259700
H       -2.71763600      -2.33663300      -0.07569600
H       -0.88977300       1.16741500      -1.73982100
H        1.33010000      -1.34864100       0.93269600
H       -0.63488300      -2.82745700       1.17674500
C        1.47675600       1.01980300      -0.37785200
N        1.37340000       1.86406400       0.85412000
H        1.46924800       1.64639000      -1.27015200
H        2.43010800       0.49546200      -0.32883900
H        2.27171800       2.28342900       1.07771000
H        0.72960800       2.63436700       0.68880000
Cu       0.58038500       0.70715900       2.27519500
18
Properties=species:S:1:pos:R:3 energy=-1967.196196614078 pbc="F F F"
C       -1.92562500      -0.56675800      -0.99914400
C       -0.83452700       0.29242900      -1.10441900
C        0.32925000       0.04309500      -0.38500300
C        0.39193500      -1.09190100       0.43955100
C       -0.70375100      -1.94419500       0.55290300
C       -1.86593200      -1.67797600      -0.16472200
H       -2.82520700      -0.36394400      -1.56567500
H       -2.71700200      -2.34159700      -0.08357000
H       -0.89061000       1.16377800      -1.74600400
H        1.32259200      -1.34108900       0.94330300
H       -0.64010500      -2.82220000       1.18293400
C        1.47268600       1.02279100      -0.37822800
N        1.38110300       1.86240000       0.85759400
H        1.45784800       1.65286800      -1.26805000
H        2.42622500       0.49786800      -0.33999100
H        2.28061800       2.28426500       1.07148900
H        0.73253700       2.63088900       0.70261900
Cu       0.60796700       0.69927700       2.28441400
18
Properties=species:S:1:pos:R:3 energy=-1967.196181034071 pbc="F F F"
C       -1.92564600      -0.57086100      -1.00621500
C       -0.83597400       0.29076100      -1.10771200
C        0.32479400       0.04605900      -0.38287100
C        0.38614900      -1.08655600       0.44542800
C       -0.70816100      -1.94091500       0.55570400
C       -1.86701000      -1.68009600      -0.16855300
H       -2.82246800      -0.37220300      -1.57814100
H       -2.71657100      -2.34612000      -0.09091500
H       -0.89109200       1.16023900      -1.75222800
H        1.31530400      -1.33345400       0.95316500
H       -0.64544100      -2.81717500       1.18857000
C        1.46871200       1.02527800      -0.37859500
N        1.38790100       1.86014500       0.86103700
H        1.44739400       1.65912500      -1.26567800
H        2.42234100       0.49989000      -0.35021200
H        2.28817700       2.28529500       1.06517800
H        0.73432600       2.62638000       0.71598100
Cu       0.63726400       0.69420900       2.29605500
18
Properties=species:S:1:pos:R:3 energy=-1967.196157782056 pbc="F F F"
C       -1.92546600      -0.57498700      -1.01304200
C       -0.83747700       0.28919400      -1.11112100
C        0.32063600       0.04872600      -0.38058300
C        0.38032300      -1.08136200       0.45092000
C       -0.71242200      -1.93785700       0.55847300
C       -1.86829200      -1.68196500      -0.17255900
H       -2.81969600      -0.38019000      -1.59047300
H       -2.71624700      -2.35039400      -0.09807200
H       -0.89136000       1.15670100      -1.75829100
H        1.30805100      -1.32614300       0.96283400
H       -0.65090600      -2.81223200       1.19397000
C        1.46477100       1.02766400      -0.37887400
N        1.39444900       1.85789500       0.86439100
H        1.43722800       1.66516000      -1.26317300
H        2.41847400       0.50185200      -0.36001500
H        2.29511900       2.28693700       1.05858300
H        0.73554200       2.62143800       0.72916700
Cu       0.66727500       0.68956300       2.30786600
18
Properties=species:S:1:pos:R:3 energy=-1967.196123332503 pbc="F F F"
C       -1.92530500      -0.57881700      -1.01976800
C       -0.83870400       0.28758600      -1.11433200
C        0.31660500       0.05123600      -0.37845200
C        0.37472200      -1.07661400       0.45612500
C       -0.71673900      -1.93491600       0.56092700
C       -1.86952300      -1.68376800      -0.17636800
H       -2.81685400      -0.38775200      -1.60241200
H       -2.71610500      -2.35430100      -0.10493600
H       -0.89139100       1.15329400      -1.76413200
H        1.30092400      -1.31944900       0.97202300
H       -0.65642100      -2.80754000       1.19906500
C        1.46100900       1.02984000      -0.37899400
N        1.40054700       1.85574500       0.86757200
H        1.42756900       1.67082000      -1.26061500
H        2.41471400       0.50372900      -0.36913300
H        2.30119100       2.28931700       1.05177900
H        0.73599800       2.61609200       0.74191500
Cu       0.69776100       0.68549700       2.31973700
18
Properties=species:S:1:pos:R:3 energy=-1967.196078851669 pbc="F F F"
C       -1.92507200      -0.58243000      -1.02628100
C       -0.83976700       0.28601300      -1.11747800
C        0.31283600       0.05349400      -0.37638700
C        0.36927700      -1.07221500       0.46096300
C       -0.72101000      -1.93213300       0.56318400
C       -1.87082400      -1.68537400      -0.18009600
H       -2.81399200      -0.39485400      -1.61397500
H       -2.71615500      -2.35780800      -0.11148000
H       -0.89116600       1.14998400      -1.76976300
H        1.29394200      -1.31339300       0.98073200
H       -0.66199100      -2.80303600       1.20385800
C        1.45742300       1.03181500      -0.37898500
N        1.40613200       1.85369500       0.87057000
H        1.41850000       1.67606800      -1.25803100
H        2.41110400       0.50550200      -0.37748900
H        2.30627600       2.29250200       1.04479300
H        0.73556600       2.61029500       0.75421700
Cu       0.72892000       0.68187400       2.33164800
18
Properties=species:S:1:pos:R:3 energy=-1967.196024449074 pbc="F F F"
C       -1.92478800      -0.58581700      -1.03256900
C       -0.84067400       0.28447700      -1.12062800
C        0.30934200       0.05550500      -0.37446800
C        0.36400700      -1.06812000       0.46539200
C       -0.72519600      -1.92947800       0.56525200
C       -1.87218700      -1.68676100      -0.18372800
H       -2.81116300      -0.40147000      -1.62508700
H       -2.71639200      -2.36089100      -0.11764700
H       -0.89071900       1.14677700      -1.77524900
H        1.28710900      -1.30780900       0.98897900
H       -0.66756100      -2.79867800       1.20838200
C        1.45404100       1.03357400      -0.37887200
N        1.41114400       1.85170100       0.87338500
H        1.41013800       1.68088700      -1.25545900
H        2.40767400       0.50712100      -0.38502100
H        2.31028900       2.29643300       1.03772600
H        0.73419600       2.60400900       0.76605500
Cu       0.76074100       0.67854000       2.34355600
18
Properties=species:S:1:pos:R:3 energy=-1967.195961276707 pbc="F F F"
C       -1.92450600      -0.58894800      -1.03866900
C       -0.84142700       0.28296600      -1.12379400
C        0.30605300       0.05730900      -0.37283900
C        0.35894000      -1.06432400       0.46937600
C       -0.72929700      -1.92693600       0.56705800
C       -1.87355400      -1.68799000      -0.18723900
H       -2.80845200      -0.40759300      -1.63567400
H       -2.71679800      -2.36357100      -0.12343100
H       -0.89012700       1.14368300      -1.78064600
H        1.28040400      -1.30244200       0.99682600
H       -0.67305900      -2.79445200       1.21263000
C        1.45088900       1.03506900      -0.37866600
N        1.41555400       1.84971100       0.87602300
H        1.40258600       1.68526300      -1.25292200
H        2.40443200       0.50850900      -0.39169200
H        2.31321100       2.30099100       1.03066900
H        0.73191700       2.59720800       0.77741700
Cu       0.79323400       0.67554700       2.35557500
18
Properties=species:S:1:pos:R:3 energy=-1967.195891206264 pbc="F F F"
C       -1.92425300      -0.59185800      -1.04456900
C       -0.84209800       0.28149100      -1.12702900
C        0.30295700       0.05887200      -0.37152000
C        0.35406200      -1.06084900       0.47280300
C       -0.73326100      -1.92457800       0.56854700
C       -1.87493900      -1.68908800      -0.19070700
H       -2.80593500      -0.41321900      -1.64569800
H       -2.71736100      -2.36590700      -0.12887800
H       -0.88946700       1.14072200      -1.78595100
H        1.27378100      -1.29711600       1.00432700
H       -0.67843700      -2.79040200       1.21653500
C        1.44795300       1.03626400      -0.37837300
N        1.41938200       1.84768600       0.87849500
H        1.39588200       1.68917500      -1.25041900
H        2.40137200       0.50959300      -0.39748800
H        2.31508900       2.30605500       1.02366500
H        0.72882700       2.58992200       0.78828400
Cu       0.82644700       0.67323600       2.36797600
18
Properties=species:S:1:pos:R:3 energy=-1967.195816751901 pbc="F F F"
C       -1.92405800      -0.59457400      -1.05029200
C       -0.84272900       0.28005200      -1.13028700
C        0.30001100       0.06016700      -0.37047100
C        0.34936100      -1.05778700       0.47563100
C       -0.73710000      -1.92249000       0.56964800
C       -1.87635500      -1.69012200      -0.19420300
H       -2.80363500      -0.41837000      -1.65519800
H       -2.71808600      -2.36798900      -0.13410700
H       -0.88878300       1.13792000      -1.79108500
H        1.26719300      -1.29186700       1.01150900
H       -0.68370600      -2.78662900       1.22001700
C        1.44519800       1.03713100      -0.37797700
N        1.42271500       1.84564100       0.88080700
H        1.38992600       1.69262000      -1.24792100
H        2.39847400       0.51035700      -0.40247000
H        2.31605200       2.31154700       1.01668800
H        0.72508200       2.58223800       0.79866900
Cu       0.86044200       0.67215500       2.38104000
18
Properties=species:S:1:pos:R:3 energy=-1967.19574059165 pbc="F F F"
C       -1.92390900      -0.59714800      -1.05588200
C       -0.84334900       0.27864600      -1.13348800
C        0.29717700       0.06117400      -0.36954000
C        0.34478700      -1.05521500       0.47793500
C       -0.74088100      -1.92073900       0.57037200
C       -1.87784500      -1.69114200      -0.19780900
H       -2.80148000      -0.42312500      -1.66435700
H       -2.71898300      -2.36990800      -0.13929200
H       -0.88805600       1.13528400      -1.79594400
H        1.26060000      -1.28691400       1.01839900
H       -0.68898000      -2.78321100       1.22304700
C        1.44256000       1.03769100      -0.37745200
N        1.42570700       1.84362500       0.88298100
H        1.38445000       1.69564700      -1.24537500
H        2.39570400       0.51086400      -0.40682000
H        2.31628700       2.31748800       1.00960600
H        0.72084200       2.57421600       0.80869900
Cu       0.89536800       0.67276900       2.39492000
18
Properties=species:S:1:pos:R:3 energy=-1967.195664204914 pbc="F F F"
C       -1.92379300      -0.59958100      -1.06139700
C       -0.84390200       0.27725800      -1.13647900
C        0.29440900       0.06192900      -0.36856100
C        0.34032100      -1.05317500       0.47994900
C       -0.74471000      -1.91931600       0.57077300
C       -1.87939900      -1.69219600      -0.20150700
H       -2.79933500      -0.42755500      -1.67333300
H       -2.72005600      -2.37172500      -0.14457600
H       -0.88722000       1.13282100      -1.80042100
H        1.25401500      -1.28254600       1.02501400
H       -0.69437500      -2.78021500       1.22565400
C        1.43999800       1.03800200      -0.37677900
N        1.42853000       1.84171700       0.88502400
H        1.37915800       1.69832300      -1.24275200
H        2.39304400       0.51123400      -0.41076300
H        2.31597400       2.32393600       1.00230000
H        0.71626400       2.56592400       0.81851000
Cu       0.93107800       0.67516300       2.40934400
18
Properties=species:S:1:pos:R:3 energy=-1967.195587706848 pbc="F F F"
C       -1.92362700      -0.60192300      -1.06685600
C       -0.84436900       0.27589600      -1.13921000
C        0.29171600       0.06247000      -0.36730100
C        0.33587000      -1.05154800       0.48199000
C       -0.74866100      -1.91816200       0.57103700
C       -1.88105400      -1.69324800      -0.20532900
H       -2.79705800      -0.43174800      -1.68234200
H       -2.72128200      -2.37347700      -0.15008400
H       -0.88616000       1.13048400      -1.80448600
H        1.24742400      -1.27891600       1.03152200
H       -0.70004100      -2.77759700       1.22794100
C        1.43746000       1.03817300      -0.37597100
N        1.43134400       1.83998300       0.88695600
H        1.37374600       1.70075200      -1.24004300
H        2.39046400       0.51160900      -0.41456100
H        2.31523700       2.33101900       0.99462600
H        0.71141200       2.55733300       0.82833500
Cu       0.96758000       0.67889800       2.42377600
18
Properties=species:S:1:pos:R:3 energy=-1967.19550825435 pbc="F F F"
C       -1.92335300      -0.60417500      -1.07228200
C       -0.84467700       0.27454600      -1.14166800
C        0.28910300       0.06288800      -0.36567900
C        0.33138800      -1.05014800       0.48435600
C       -0.75278500      -1.91712700       0.57134900
C       -1.88277900      -1.69425800      -0.20920300
H       -2.79453100      -0.43576400      -1.69147200
H       -2.72261100      -2.37515200      -0.15582000
H       -0.88477500       1.12821100      -1.80821200
H        1.24081800      -1.27595600       1.03813000
H       -0.70604300      -2.77522900       1.23009100
C        1.43493700       1.03832300      -0.37507000
N        1.43421000       1.83844800       0.88879600
H        1.36805900       1.70303800      -1.23729400
H        2.38795800       0.51212700      -0.41840700
H        2.31410000       2.33878300       0.98657200
H        0.70630800       2.54840600       0.83834100
Cu       1.00467400       0.68303800       2.43747300
18
Properties=species:S:1:pos:R:3 energy=-1967.195422379762 pbc="F F F"
C       -1.92293600      -0.60634700      -1.07766900
C       -0.84478800       0.27318900      -1.14397400
C        0.28660200       0.06326900      -0.36379900
C        0.32687800      -1.04876000       0.48712000
C       -0.75704200      -1.91604500       0.57184500
C       -1.88452100      -1.69516500      -0.21302600
H       -2.79175200      -0.43964600      -1.70067400
H       -2.72398600      -2.37669200      -0.16162300
H       -0.88304400       1.12592400      -1.81179300
H        1.23418300      -1.27333400       1.04499600
H       -0.71231300      -2.77289100       1.23231700
C        1.43244800       1.03854800      -0.37415000
N        1.43705200       1.83705400       0.89058400
H        1.36215500       1.70528000      -1.23457400
H        2.38553900       0.51286400      -0.42235900
H        2.31249200       2.34708800       0.97831300
H        0.70096000       2.53913600       0.84858200
Cu       1.04207100       0.68653000       2.44988500
18
Properties=species:S:1:pos:R:3 energy=-1967.195328279339 pbc="F F F"
C       -1.92240000      -0.60845900      -1.08299400
C       -0.84472800       0.27180200      -1.14631600
C        0.28422000       0.06367500      -0.36189900
C        0.32236300      -1.04721600       0.49013000
C       -0.76132100      -1.91482200       0.57252900
C       -1.88622800      -1.69595400      -0.21672400
H       -2.78884900      -0.44342000      -1.70977400
H       -2.72535600      -2.37806200      -0.16727200
H       -0.88107200       1.12355600      -1.81546900
H        1.22747500      -1.27053300       1.05220800
H       -0.71865500      -2.77040600       1.23472500
C        1.43002400       1.03887700      -0.37326500
N        1.43973500       1.83569800       0.89237100
H        1.35628300       1.70753400      -1.23193400
H        2.38321000       0.51378000      -0.42631700
H        2.31036100       2.35561400       0.97015900
H        0.69543500       2.52959200       0.85898200
Cu       1.07950300       0.68874300       2.46086000
18
Properties=species:S:1:pos:R:3 energy=-1967.195226497536 pbc="F F F"
C       -1.92181700      -0.61054400      -1.08824800
C       -0.84458300       0.27037500      -1.14882600
C        0.28191100       0.06414100      -0.36016900
C        0.31783300      -1.04546000       0.49317000
C       -0.76552600      -1.91348200       0.57329200
C       -1.88786900      -1.69668100      -0.22030700
H       -2.78600100      -0.44710700      -1.71860800
H       -2.72669300      -2.37931200      -0.17266400
H       -0.87904100       1.12108500      -1.81938100
H        1.22060900      -1.26709700       1.05979800
H       -0.72487500      -2.76776200       1.23725600
C        1.42767600       1.03927900      -0.37241100
N        1.44218600       1.83431700       0.89420600
H        1.35070300       1.70979500      -1.22937000
H        2.38093400       0.51474000      -0.43010400
H        2.30776400       2.36404700       0.96235000
H        0.68988100       2.51992900       0.86941500
Cu       1.11690700       0.68973800       2.47060300
18
Properties=species:S:1:pos:R:3 energy=-1967.195119258772 pbc="F F F"
C       -1.92125600      -0.61264300      -1.09345400
C       -0.84444900       0.26890600      -1.15152100
C        0.27959400       0.06466200      -0.35865200
C        0.31324500      -1.04357000       0.49607100
C       -0.76965300      -1.91213700       0.57399000
C       -1.88947100      -1.69743800      -0.22385000
H       -2.78330800      -0.45075000      -1.72715600
H       -2.72801200      -2.38054400      -0.17786400
H       -0.87709300       1.11852100      -1.82353300
H        1.21350700      -1.26290100       1.06766800
H       -0.73090800      -2.76507100       1.23976700
C        1.42538000       1.03968900      -0.37152100
N        1.44444500       1.83291600       0.89613500
H        1.34552000       1.71202000      -1.22681400
H        2.37865600       0.51560200      -0.43358300
H        2.30482900       2.37227100       0.95491700
H        0.68444600       2.51028000       0.87982200
Cu       1.15452900       0.69018700       2.47957800
18
Properties=species:S:1:pos:R:3 energy=-1967.195009454208 pbc="F F F"
C       -1.92075000      -0.61479600      -1.09868000
C       -0.84437500       0.26739200      -1.15434700
C        0.27720200       0.06519500      -0.35727800
C        0.30853800      -1.04169400       0.49875500
C       -0.77378200      -1.91089000       0.57453300
C       -1.89110000      -1.69828700      -0.22744200
H       -2.78074600      -0.45441600      -1.73556800
H       -2.72937400      -2.38183400      -0.18301600
H       -0.87526400       1.11588200      -1.82785100
H        1.20610700      -1.25819400       1.07562100
H       -0.73685100      -2.76244500       1.24216100
C        1.42309400       1.04005000      -0.37050300
N        1.44660600       1.83153500       0.89820500
H        1.34065100       1.71417900      -1.22415800
H        2.37632400       0.51630900      -0.43672300
H        2.30162900       2.38039400       0.94771100
H        0.67917500       2.50064600       0.89027300
Cu       1.19291500       0.69097300       2.48830900
18
Properties=species:S:1:pos:R:3 energy=-1967.194900119271 pbc="F F F"
C       -1.92027900      -0.61701900      -1.10400600
C       -0.84434200       0.26582400      -1.15724100
C        0.27472400       0.06568100      -0.35594700
C        0.30369700      -1.03996700       0.50124600
C       -0.77802800      -1.90976500       0.57492300
C       -1.89282900      -1.69921700      -0.23112700
H       -2.77819100      -0.45817200      -1.74407900
H       -2.73085900      -2.38316500      -0.18823000
H       -0.87347700       1.11317000      -1.83226000
H        1.19843900      -1.25342100       1.08344000
H       -0.74290300      -2.75990100       1.24445800
C        1.42077800       1.04033200      -0.36930400
N        1.44876600       1.83017300       0.90045700
H        1.33589300       1.71629900      -1.22129000
H        2.37392300       0.51689600      -0.43962400
H        2.29812400       2.38865400       0.94052600
H        0.67399000       2.49084300       0.90095500
Cu       1.23257600       0.69275400       2.49710200
18
Properties=species:S:1:pos:R:3 energy=-1967.194793059022 pbc="F F F"
C       -1.91979600      -0.61929500      -1.10947500
C       -0.84429000       0.26419300      -1.16015000
C        0.27220600       0.06605800      -0.35458900
C        0.29879000      -1.03846200       0.50363000
C       -0.78245900      -1.90870800       0.57523900
C       -1.89469500      -1.70014400      -0.23487200
H       -2.77550600      -0.46203800      -1.75286800
H       -2.73253000      -2.38443300      -0.19351400
H       -0.87160300       1.11038600      -1.83669900
H        1.19068900      -1.24903600       1.09089600
H       -0.74925600      -2.75737500       1.24674600
C        1.41842100       1.04052800      -0.36792900
N        1.45096600       1.82878000       0.90289500
H        1.33104900       1.71843000      -1.21815100
H        2.37147200       0.51744400      -0.44244000
H        2.29417400       2.39724900       0.93323000
H        0.66874600       2.48058700       0.91205300
Cu       1.27362300       0.69583600       2.50599800
18
Properties=species:S:1:pos:R:3 energy=-1967.194687317103 pbc="F F F"
C       -1.91926500      -0.62157700      -1.11506500
C       -0.84415300       0.26250500      -1.16303900
C        0.26971700       0.06629300      -0.35318600
C        0.29388700      -1.03716500       0.50601900
C       -0.78707600      -1.90765500       0.57555200
C       -1.89669100      -1.70099600      -0.23863400
H       -2.77263100      -0.46595000      -1.76194100
H       -2.73439400      -2.38554600      -0.19883800
H       -0.86954400       1.10755000      -1.84111600
H        1.18299900      -1.24526700       1.09796300
H       -0.75597400      -2.75481800       1.24907900
C        1.41604600       1.04063800      -0.36643300
N        1.45314600       1.82731100       0.90546400
H        1.32606500       1.72057800      -1.21478100
H        2.36902900       0.51802100      -0.44523700
H        2.28961300       2.40623600       0.92585000
H        0.66330200       2.46970800       0.92358600
Cu       1.31592500       0.70013400       2.51475800
18
Properties=species:S:1:pos:R:3 energy=-1967.194580536786 pbc="F F F"
C       -1.91866100      -0.62382200      -1.12072800
C       -0.84389800       0.26077400      -1.16590400
C        0.26729100       0.06641500      -0.35173300
C        0.28896300      -1.03594000       0.50857000
C       -0.79184000      -1.90655700       0.57590900
C       -1.89875500      -1.70177300      -0.24242000
H       -2.76959800      -0.46979900      -1.77116200
H       -2.73636400      -2.38653400      -0.20424200
H       -0.86726600       1.10469200      -1.84548700
H        1.17526300      -1.24192700       1.10502500
H       -0.76299200      -2.75221800       1.25145400
C        1.41367800       1.04069800      -0.36489200
N        1.45519800       1.82577600       0.90805700
H        1.32100500       1.72269900      -1.21131800
H        2.36663400       0.51867500      -0.44798900
H        2.28434500       2.41553800       0.91853200
H        0.65759600       2.45822500       0.93544200
Cu       1.35940100       0.70507800       2.52288600
18
Properties=species:S:1:pos:R:3 energy=-1967.194471299424 pbc="F F F"
C       -1.91796900      -0.62603900      -1.12645100
C       -0.84352100       0.25901100      -1.16877700
C        0.26489500       0.06652400      -0.35022100
C        0.28390900      -1.03455700       0.51146300
C       -0.79673200      -1.90534700       0.57637100
C       -1.90080200      -1.70252400      -0.24626600
H       -2.76644000      -0.47356500      -1.78043800
H       -2.73829100      -2.38752900      -0.20983500
H       -0.86478200       1.10180100      -1.84987000
H        1.16724100      -1.23850500       1.11263900
H       -0.77022300      -2.74951800       1.25391400
C        1.41131100       1.04078000      -0.36337800
N        1.45709300       1.82418400       0.91060500
H        1.31590300       1.72480000      -1.20789100
H        2.36426700       0.51943300      -0.45072800
H        2.27840700       2.42503000       0.91140500
H        0.65168000       2.44619600       0.94760700
Cu       1.40405600       0.70982500       2.52985400
18
Properties=species:S:1:pos:R:3 energy=-1967.194359999435 pbc="F F F"
C       -1.91716000      -0.62828600      -1.13227600
C       -0.84304100       0.25720700      -1.17172400
C        0.26246500       0.06674500      -0.34863100
C        0.27860600      -1.03278600       0.51483900
C       -0.80174500      -1.90393400       0.57702700
C       -1.90276300      -1.70330200      -0.25020400
H       -2.76313500      -0.47735400      -1.78981200
H       -2.74003900      -2.38866000      -0.21569600
H       -0.86211400       1.09882500      -1.85438200
H        1.15871800      -1.23441900       1.12126000
H       -0.77763200      -2.74659600       1.25658600
C        1.40890700       1.04098000      -0.36195300
N        1.45894000       1.82249700       0.91310600
H        1.31066700       1.72698400      -1.20454700
H        2.36185700       0.52034100      -0.45365500
H        2.27194100       2.43460300       0.90451600
H        0.64571700       2.43359100       0.96023900
Cu       1.44981300       0.71356200       2.53530500
18
Properties=species:S:1:pos:R:3 energy=-1967.194247452505 pbc="F F F"
C       -1.91619700      -0.63064200      -1.13826200
C       -0.84246700       0.25534500      -1.17479900
C        0.25995000       0.06717500      -0.34694300
C        0.27300300      -1.03046100       0.51878800
C       -0.80688200      -1.90221800       0.57797400
C       -1.90458700      -1.70412900      -0.25422800
H       -2.75960500      -0.48134200      -1.79941400
H       -2.74152100      -2.38999800      -0.22183700
H       -0.85927600       1.09570000      -1.85913200
H        1.14958900      -1.22921500       1.13113300
H       -0.78523900      -2.74329600       1.25963400
C        1.40642800       1.04138900      -0.36067400
N        1.46097400       1.82062500       0.91560600
H        1.30509100       1.72943900      -1.20124300
H        2.35932700       0.52146500      -0.45712000
H        2.26513100       2.44420600       0.89784100
H        0.63993900       2.42024000       0.97362100
Cu       1.49634200       0.71571800       2.53905500
18
Properties=species:S:1:pos:R:3 energy=-1967.194132925597 pbc="F F F"
C       -1.91504900      -0.63317100      -1.14445100
C       -0.84180800       0.25341100      -1.17803000
C        0.25733400       0.06784600      -0.34514500
C        0.26712300      -1.02754300       0.52328100
C       -0.81214200      -1.90014000       0.57927200
C       -1.90626800      -1.70499100      -0.25830900
H       -2.75576800      -0.48568400      -1.80938600
H       -2.74272400      -2.39153700      -0.22819900
H       -0.85627400       1.09237500      -1.86417400
H        1.13990400      -1.22281600       1.14212800
H       -0.79309600      -2.73950300       1.26317400
C        1.40385400       1.04203900      -0.35956400
N        1.46343100       1.81846200       0.91816600
H        1.29896600       1.73232700      -1.19786400
H        2.35662600       0.52285100      -0.46145300
H        2.25811100       2.45382800       0.89130500
H        0.63457600       2.40594000       0.98799200
Cu       1.54320400       0.71630600       2.54125700
18
Properties=species:S:1:pos:R:3 energy=-1967.194013752744 pbc="F F F"
C       -1.91373000      -0.63589100      -1.15088300
C       -0.84108700       0.25139800      -1.18138200
C        0.25459700       0.06869700      -0.34320500
C        0.26097900      -1.02421300       0.52816600
C       -0.81759900      -1.89776900       0.58084000
C       -1.90789800      -1.70588400      -0.26246400
H       -2.75157300      -0.49044000      -1.81985700
H       -2.74377100      -2.39323900      -0.23478100
H       -0.85311300       1.08885100      -1.86945800
H        1.12974700      -1.21571400       1.15375500
H       -0.80130100      -2.73527800       1.26713300
C        1.40116600       1.04285400      -0.35853200
N        1.46640600       1.81599000       0.92085900
H        1.29222200       1.73564800      -1.19424300
H        2.35372300       0.52445100      -0.46666800
H        2.25083200       2.46358200       0.88474800
H        0.62972800       2.39058400       1.00345700
Cu       1.59067200       0.71637500       2.54251400
18
Properties=species:S:1:pos:R:3 energy=-1967.193886100133 pbc="F F F"
C       -1.91228500      -0.63876700      -1.15758000
C       -0.84032000       0.24931000      -1.18472800
C        0.25172200       0.06957800      -0.34100200
C        0.25451800      -1.02082600       0.53330500
C       -0.82339600      -1.89533900       0.58246900
C       -1.90963600      -1.70684400      -0.26681700
H       -2.74700500      -0.49549900      -1.83090000
H       -2.74486800      -2.39507200      -0.24173100
H       -0.84975000       1.08519300      -1.87477900
H        1.11904800      -1.20875800       1.16563500
H       -0.81000200      -2.73093100       1.27120000
C        1.39834900       1.04368300      -0.35737400