18
Properties=species:S:1:pos:R:3 energy=-1967.141486697832 pbc="F F F"
C       -2.98970300       1.85557900       1.65071400
C       -1.87100400       2.64753800       1.45340500
C       -0.67223800       2.34402200       2.11552400
C       -0.58873000       1.19434300       2.91952800
C       -1.70567200       0.40274200       3.09943400
C       -2.91170400       0.74269800       2.48228700
H       -3.92155300       2.10802400       1.16340000
H       -3.78887600       0.13127300       2.64801400
H       -1.91726900       3.51506200       0.80744700
H        0.34782900       0.90560300       3.38025100
H       -1.64446000      -0.48168500       3.71914500
C        0.41233500       3.27910900       1.96527500
N        1.47304100       3.35862800       2.81346000
H        0.26176000       4.14184800       1.32735100
H        1.66142100       1.96545900      -0.35571600
H        1.96305300       4.24344000       2.88885400
H        1.48948900       2.79209400       3.65429000
Cu       2.01377000       2.40729000       1.03993600
18
Properties=species:S:1:pos:R:3 energy=-1967.141927004894 pbc="F F F"
C       -2.98387200       1.84432500       1.63516900
C       -1.87303400       2.65467000       1.46825300
C       -0.67814800       2.35663800       2.14168200
C       -0.60427000       1.21665000       2.96087600
C       -1.71608600       0.41223000       3.11778400
C       -2.90818600       0.72797800       2.46207600
H       -3.90601900       2.08063900       1.12164700
H       -3.77683000       0.09650500       2.59612200
H       -1.91753600       3.52200100       0.82199800
H        0.32225800       0.94357500       3.44997900
H       -1.65921600      -0.46859900       3.74301300
C        0.41493000       3.28166900       1.97605400
N        1.49538800       3.34362800       2.80116800
H        0.25800400       4.15259600       1.35088800
H        1.62413600       1.99295100      -0.39089200
H        1.99643100       4.22244500       2.87344800
H        1.53013500       2.76672300       3.63403100
Cu       1.99340500       2.40644300       1.00930400
18
Properties=species:S:1:pos:R:3 energy=-1967.142398946613 pbc="F F F"
C       -2.96362300       1.81706300       1.59565800
C       -1.86679500       2.65395900       1.47651400
C       -0.68962200       2.38096600       2.19264600
C       -0.63497800       1.25973300       3.03894000
C       -1.73578900       0.43276600       3.15453600
C       -2.89686900       0.70371500       2.42752800
H       -3.86544800       2.02522400       1.03574800
H       -3.74834400       0.04063600       2.51055000
H       -1.90618800       3.51891000       0.82676200
H        0.26472400       1.02373100       3.59269100
H       -1.69326300      -0.43276400       3.80186400
C        0.41527400       3.28965100       2.00817700
N        1.53719700       3.30523000       2.77805000
H        0.24332600       4.18472700       1.42249500
H        1.53209400       2.05770500      -0.46244500
H        2.06010800       4.17094900       2.85277800
H        1.61586400       2.69293400       3.58146300
Cu       1.94382100       2.42793200       0.93864300
18
Properties=species:S:1:pos:R:3 energy=-1967.142565184113 pbc="F F F"
C       -2.95277200       1.80351800       1.57705200
C       -1.85892600       2.64491500       1.46904300
C       -0.69269200       2.38604300       2.20847300
C       -0.64635300       1.27270700       3.06532900
C       -1.74465900       0.44112300       3.17050400
C       -2.89439200       0.69849000       2.42117700
H       -3.84688000       2.00266500       1.00183100
H       -3.74353900       0.03155800       2.49621900
H       -1.89288000       3.50442100       0.81173700
H        0.24110800       1.05014900       3.64320400
H       -1.71035900      -0.41511800       3.83055300
C        0.41247300       3.29287000       2.02626100
N        1.55119600       3.28765900       2.76998600
H        0.23328700       4.20059500       1.46240900
H        1.50114800       2.09739500      -0.49440000
H        2.08011900       4.14926200       2.85052200
H        1.65195100       2.65395900       3.55451500
Cu       1.92366000       2.45085700       0.90818100
18
Properties=species:S:1:pos:R:3 energy=-1967.142771423574 pbc="F F F"
C       -2.93647700       1.78186600       1.55039700
C       -1.84373400       2.62388500       1.45087900
C       -0.69490300       2.38595200       2.22473200
C       -0.66278900       1.28737100       3.10055600
C       -1.76011200       0.45354400       3.19651000
C       -2.89482800       0.69487200       2.41993400
H       -3.81959100       1.96900400       0.95476700
H       -3.74660900       0.03150600       2.49530700
H       -1.86508400       3.46982100       0.77562600
H        0.20590600       1.08365400       3.71237900
H       -1.73949300      -0.38704200       3.87691000
C        0.40550100       3.29617900       2.05627500
N        1.56796200       3.25981700       2.75765400
H        0.21550300       4.22379800       1.52900500
H        1.47633900       2.17400100      -0.54819900
H        2.10182200       4.11700000       2.85319800
H        1.70477600       2.58789800       3.50437800
Cu       1.89730000       2.49994100       0.86229000
18
Properties=species:S:1:pos:R:3 energy=-1967.142858994522 pbc="F F F"
C       -2.93696100       1.77947600       1.54930600
C       -1.84175100       2.61705900       1.44413700
C       -0.69418800       2.38081400       2.22073100
C       -0.66297600       1.28425600       3.09904900
C       -1.76284400       0.45433400       3.20005700
C       -2.89901300       0.69826200       2.42663000
H       -3.82025200       1.96670700       0.95402300
H       -3.75550600       0.04216800       2.51118400
H       -1.85941000       3.45831200       0.76296900
H        0.20624600       1.07917100       3.70994500
H       -1.74321000      -0.38425300       3.88291500
C        0.40101800       3.29729700       2.06214800
N        1.56603200       3.25757400       2.75707500
H        0.20992700       4.22733700       1.53935800
H        1.49792900       2.18618800      -0.55783300
H        2.09698700       4.11599400       2.85879700
H        1.71046200       2.57644300       3.49415600
Cu       1.89899900       2.51593000       0.85795100
18
Properties=species:S:1:pos:R:3 energy=-1967.143004240482 pbc="F F F"
C       -2.94536200       1.78254800       1.55734600
C       -1.84703600       2.61395600       1.44041600
C       -0.69507100       2.37393100       2.21000100
C       -0.65957900       1.27603900       3.08665100
C       -1.76288600       0.45196800       3.19849300
C       -2.90632500       0.70453100       2.43891500
H       -3.83267000       1.97259200       0.96898400
H       -3.76895700       0.05874500       2.53877300
H       -1.86345400       3.45244900       0.75590900
H        0.21710500       1.06254000       3.68425100
H       -1.73921400      -0.38892800       3.87831600
C        0.39119500       3.30095900       2.06582600
N        1.55597300       3.26147600       2.75771000
H        0.20399200       4.22858400       1.53729500
H        1.56689300       2.17727000      -0.56276600
H        2.08142600       4.12268200       2.86637800
H        1.70558200       2.57231200       3.48638200
Cu       1.90987900       2.52941000       0.86371800
18
Properties=species:S:1:pos:R:3 energy=-1967.143125072414 pbc="F F F"
C       -2.95445600       1.78786200       1.56700900
C       -1.85710300       2.62002200       1.44722400
C       -0.69960600       2.37489700       2.20766700
C       -0.65854900       1.27241600       3.07908100
C       -1.76134100       0.44814800       3.19355600
C       -2.90964600       0.70550500       2.44286800
H       -3.84519500       1.97987700       0.98447900
H       -3.77234500       0.06022900       2.54571800
H       -1.87672400       3.46227000       0.76750400
H        0.22339600       1.05326000       3.66678100
H       -1.73260400      -0.39752200       3.86719800
C        0.38203100       3.30645100       2.06784700
N        1.54852400       3.26768800       2.75472400
H        0.20051400       4.22899900       1.52861000
H        1.63362700       2.14761200      -0.56227000
H        2.07263200       4.12988900       2.86348000
H        1.70145000       2.57622800       3.48049400
Cu       1.91688500       2.52923500       0.87062900
18
Properties=species:S:1:pos:R:3 energy=-1967.143265607267 pbc="F F F"
C       -2.96820500       1.79866900       1.58327700
C       -1.87540300       2.63754400       1.46653600
C       -0.70894600       2.38402500       2.21128500
C       -0.65709500       1.27034200       3.06912500
C       -1.75544400       0.44049000       3.18052700
C       -2.91023400       0.70278100       2.44078100
H       -3.86448400       1.99442000       1.01055100
H       -3.76767900       0.04946800       2.53721300
H       -1.90450200       3.49133300       0.80178400
H        0.23157500       1.04559000       3.64429400
H       -1.71785700      -0.41483200       3.84140000
C        0.37057500       3.31537600       2.06631500
N        1.53918800       3.28012800       2.74830100
H        0.19753200       4.22751700       1.50699800
H        1.72148600       2.08147200      -0.54934300
H        2.06537600       4.14220100       2.84948900
H        1.69118900       2.59421400       3.47975800
Cu       1.92442200       2.51233000       0.88430700
18
Properties=species:S:1:pos:R:3 energy=-1967.143329750269 pbc="F F F"
C       -2.97588200       1.80653800       1.59351900
C       -1.88732100       2.65219300       1.48303700
C       -0.71588600       2.39403600       2.21857800
C       -0.65648600       1.27117700       3.06473300
C       -1.74984500       0.43485900       3.16948800
C       -2.90788800       0.69891100       2.43452200
H       -3.87557500       2.00518100       1.02720400
H       -3.75921200       0.03620500       2.52077800
H       -1.92447900       3.51540900       0.83099300
H        0.23520300       1.04525500       3.63457400
H       -1.70655600      -0.42772700       3.82049900
C        0.36493200       3.32100100       2.06344800
N        1.53508800       3.28905300       2.74285400
H        0.19463000       4.22619400       1.49211300
H        1.76548600       2.02951100      -0.53569300
H        2.06527300       4.14981700       2.83461700
H        1.68345900       2.61234500       3.48385100
Cu       1.92655100       2.49310900       0.89348500
18
Properties=species:S:1:pos:R:3 energy=-1967.143352847158 pbc="F F F"
C       -2.97677300       1.80848500       1.59517500
C       -1.89009000       2.65733100       1.48904500
C       -0.71835900       2.39906000       2.22396300
C       -0.65711500       1.27305500       3.06601300
C       -1.74788700       0.43340400       3.16618900
C       -2.90581800       0.69667500       2.43022300
H       -3.87688000       2.00776400       1.02978400
H       -3.75405100       0.02929800       2.51063900
H       -1.93014100       3.52340200       0.84094300
H        0.23417600       1.04893400       3.63710900
H       -1.70357200      -0.43137600       3.81421800
C        0.36411700       3.32252400       2.06288100
N        1.53557600       3.29071000       2.74020400
H        0.19136000       4.22714200       1.49138100
H        1.77114500       2.01313600      -0.53309900
H        2.06897300       4.15001300       2.82703900
H        1.68190100       2.61924100       3.48654000
Cu       1.92492800       2.48426900       0.89435100
18
Properties=species:S:1:pos:R:3 energy=-1967.143364130977 pbc="F F F"
C       -2.97634600       1.80863600       1.59477000
C       -1.89006100       2.65825800       1.49018300
C       -0.71891000       2.40060800       2.22611200
C       -0.65757500       1.27370500       3.06705500
C       -1.74748700       0.43309100       3.16557200
C       -2.90512500       0.69603700       2.42872400
H       -3.87632000       2.00818700       1.02929200
H       -3.75255900       0.02749300       2.50772200
H       -1.93090100       3.52449100       0.84231800
H        0.23317400       1.05097200       3.63953100
H       -1.70349600      -0.43217500       3.81297400
C        0.36414200       3.32281200       2.06330700
N        1.53648600       3.29030000       2.73896400
H        0.18758900       4.22902100       1.49553000
H        1.77130000       2.00975300      -0.53420600
H        2.07166700       4.14876600       2.82326200
H        1.68194600       2.62198700       3.48839800
Cu       1.92396600       2.48112500       0.89308900
18
Properties=species:S:1:pos:R:3 energy=-1967.143369633747 pbc="F F F"
C       -2.97652900       1.80874800       1.59487800
C       -1.88985700       2.65777400       1.48949900
C       -0.71870000       2.40007700       2.22534000
C       -0.65729300       1.27290800       3.06601500
C       -1.74745800       0.43284300       3.16532900
C       -2.90560300       0.69657900       2.42944200
H       -3.87667200       2.00872400       1.02983500
H       -3.75360000       0.02894700       2.51000300
H       -1.93081300       3.52344500       0.84087800
H        0.23393600       1.05000800       3.63771600
H       -1.70364900      -0.43261200       3.81248100
C        0.36378500       3.32303400       2.06375200
N        1.53634000       3.29000500       2.73866900
H        0.18435700       4.23071100       1.49924500
H        1.77522700       2.00931600      -0.53486800
H        2.07200900       4.14833700       2.82159000
H        1.68132600       2.62380500       3.49012700
Cu       1.92468500       2.48041900       0.89266700
18
Properties=species:S:1:pos:R:3 energy=-1967.143371894649 pbc="F F F"
C       -2.97712900       1.80897100       1.59542400
C       -1.89005400       2.65727400       1.48868800
C       -0.71843900       2.39911000       2.22365300
C       -0.65672600       1.27187300       3.06427900
C       -1.74743200       0.43265300       3.16508100
C       -2.90632000       0.69734400       2.43072900
H       -3.87756700       2.00920900       1.03094100
H       -3.75509000       0.03094100       2.51331100
H       -1.93097100       3.52255700       0.83955300
H        0.23542900       1.04799800       3.63417800
H       -1.70345900      -0.43293900       3.81203300
C        0.36308900       3.32354400       2.06418200
N        1.53557900       3.28998700       2.73880200
H        0.18257800       4.23188300       1.50110400
H        1.78059500       2.00896700      -0.53464600
H        2.07126000       4.14843000       2.82083700
H        1.68034700       2.62493500       3.49132800
Cu       1.92580000       2.48033000       0.89312100
18
Properties=species:S:1:pos:R:3 energy=-1967.143372787898 pbc="F F F"
C       -2.97751500       1.80912400       1.59578100
C       -1.89043500       2.65733300       1.48857800
C       -0.71845700       2.39885800       2.22290000
C       -0.65641500       1.27155700       3.06343000
C       -1.74730500       0.43257400       3.16483100
C       -2.90653200       0.69758700       2.43119300
H       -3.87809900       2.00932900       1.03151300
H       -3.75552800       0.03155000       2.51443900
H       -1.93137500       3.52269700       0.83955900
H        0.23625500       1.04703200       3.63226900
H       -1.70305100      -0.43311400       3.81163400
C        0.36252800       3.32415100       2.06457600
N        1.53504500       3.29006700       2.73892700
H        0.18235100       4.23243800       1.50132800
H        1.78321200       2.00810200      -0.53410600
H        2.07091400       4.14848000       2.82021100
H        1.67976200       2.62543700       3.49182200
Cu       1.92613300       2.47986500       0.89371200
18
Properties=species:S:1:pos:R:3 energy=-1967.143373623009 pbc="F F F"
C       -2.97766700       1.80921000       1.59590400
C       -1.89083700       2.65774100       1.48890500
C       -0.71865600       2.39915100       2.22291000
C       -0.65630000       1.27171800       3.06323700
C       -1.74708500       0.43252100       3.16452700
C       -2.90637000       0.69746200       2.43101400
H       -3.87828900       2.00924700       1.03162900
H       -3.75523700       0.03123000       2.51404800
H       -1.93186200       3.52342000       0.84031700
H        0.23654100       1.04691200       3.63168500
H       -1.70253100      -0.43327700       3.81116100
C        0.36206400       3.32484600       2.06507100
N        1.53475800       3.29015600       2.73896700
H        0.18265800       4.23286100       1.50115900
H        1.78378800       2.00680500      -0.53354700
H        2.07115700       4.14834100       2.81921400
H        1.67945500       2.62588200       3.49217000
Cu       1.92590300       2.47884100       0.89422600
18
Properties=species:S:1:pos:R:3 energy=-1967.143374425394 pbc="F F F"
C       -2.97759400       1.80922900       1.59580100
C       -1.89114100       2.65830800       1.48946500
C       -0.71894100       2.39979500       2.22351200
C       -0.65635900       1.27218100       3.06356800
C       -1.74683000       0.43247200       3.16421400
C       -2.90596400       0.69709600       2.43038100
H       -3.87816600       2.00905700       1.03137200
H       -3.75448900       0.03033100       2.51264500
H       -1.93226600       3.52436700       0.84139600
H        0.23634700       1.04745600       3.63224800
H       -1.70202400      -0.43346300       3.81065000
C        0.36173600       3.32549500       2.06562600
N        1.53471500       3.29024100       2.73893600
H        0.18314400       4.23318800       1.50095800
H        1.78266200       2.00543400      -0.53313900
H        2.07189400       4.14805100       2.81794800
H        1.67941400       2.62635300       3.49247000
Cu       1.92535300       2.47747700       0.89454600
18
Properties=species:S:1:pos:R:3 energy=-1967.143374981806 pbc="F F F"
C       -2.97743400       1.80922100       1.59562800
C       -1.89127100       2.65874300       1.48995100
C       -0.71917100       2.40039100       2.22424000
C       -0.65650600       1.27261000       3.06406200
C       -1.74665300       0.43241300       3.16399200
C       -2.90559200       0.69674000       2.42974000
H       -3.87794100       2.00892900       1.03105800
H       -3.75379900       0.02947900       2.51124200
H       -1.93247500       3.52504800       0.84221500
H        0.23593300       1.04816800       3.63326500
H       -1.70171700      -0.43365900       3.81023800
C        0.36158700       3.32585400       2.06602400
N        1.53480300       3.29033700       2.73888000
H        0.18347500       4.23331400       1.50084000
H        1.78108600       2.00453500      -0.53300300
H        2.07264700       4.14780900       2.81695600
H        1.67953700       2.62673500       3.49266200
Cu       1.92498000       2.47640100       0.89460900
18
Properties=species:S:1:pos:R:3 energy=-1967.143375258205 pbc="F F F"
C       -2.97734400       1.80922900       1.59554300
C       -1.89130200       2.65894600       1.49022100
C       -0.71930000       2.40071200       2.22472000
C       -0.65664300       1.27281500       3.06439700
C       -1.74659100       0.43234900       3.16388800
C       -2.90542400       0.69655100       2.42939300
H       -3.87782400       2.00892600       1.03093000
H       -3.75346700       0.02903600       2.51048900
H       -1.93255500       3.52532200       0.84258200
H        0.23560100       1.04862500       3.63400600
H       -1.70162300      -0.43383600       3.80997900
C        0.36153200       3.32593700       2.06621500
N        1.53485600       3.29044700       2.73884500
H        0.18355600       4.23326400       1.50077200
H        1.78022500       2.00419300      -0.53307500
H        2.07306900       4.14772300       2.81647100
H        1.67966500       2.62694900       3.49271100
Cu       1.92505900       2.47587900       0.89451000
18
Properties=species:S:1:pos:R:3 energy=-1967.143375321146 pbc="F F F"
C       -2.97739700       1.80927900       1.59561500
C       -1.89133100       2.65896900       1.49031300
C       -0.71935900       2.40075900       2.22487100
C       -0.65672800       1.27278000       3.06446500
C       -1.74662000       0.43227600       3.16386100
C       -2.90547300       0.69654000       2.42938200
H       -3.87790900       2.00905400       1.03108300
H       -3.75350500       0.02901000       2.51045400
H       -1.93263200       3.52530800       0.84262500
H        0.23547200       1.04871300       3.63419600
H       -1.70166500      -0.43399900       3.80983000
C        0.36148100       3.32585300       2.06623700
N        1.53477800       3.29059100       2.73885200
H        0.18344100       4.23308100       1.50065400
H        1.78049000       2.00420500      -0.53325500
H        2.07308400       4.14780700       2.81642700
H        1.67969600       2.62702500       3.49264300
Cu       1.92566800       2.47581700       0.89434600
