
                                 *****************
                                 * O   R   C   A *
                                 *****************

                                            #,                                       
                                            ###                                      
                                            ####                                     
                                            #####                                    
                                            ######                                   
                                           ########,                                 
                                     ,,################,,,,,                         
                               ,,#################################,,                 
                          ,,##########################################,,             
                       ,#########################################, ''#####,          
                    ,#############################################,,   '####,        
                  ,##################################################,,,,####,       
                ,###########''''           ''''###############################       
              ,#####''   ,,,,##########,,,,          '''####'''          '####       
            ,##' ,,,,###########################,,,                        '##       
           ' ,,###''''                  '''############,,,                           
         ,,##''                                '''############,,,,        ,,,,,,###''
      ,#''                                            '''#######################'''  
     '                                                          ''''####''''         
             ,#######,   #######,   ,#######,      ##                                
            ,#'     '#,  ##    ##  ,#'     '#,    #''#        ######   ,####,        
            ##       ##  ##   ,#'  ##            #'  '#       #        #'  '#        
            ##       ##  #######   ##           ,######,      #####,   #    #        
            '#,     ,#'  ##    ##  '#,     ,#' ,#      #,         ##   #,  ,#        
             '#######'   ##     ##  '#######'  #'      '#     #####' # '####'        



                  #######################################################
                  #                        -***-                        #
                  #          Department of theory and spectroscopy      #
                  #    Directorship and core code : Frank Neese         #
                  #        Max Planck Institute fuer Kohlenforschung    #
                  #                Kaiser Wilhelm Platz 1               #
                  #                 D-45470 Muelheim/Ruhr               #
                  #                      Germany                        #
                  #                                                     #
                  #                  All rights reserved                #
                  #                        -***-                        #
                  #######################################################


                         Program Version 5.0.3 -  RELEASE  -


 With contributions from (in alphabetic order):
   Daniel Aravena         : Magnetic Suceptibility
   Michael Atanasov       : Ab Initio Ligand Field Theory (pilot matlab implementation)
   Alexander A. Auer      : GIAO ZORA, VPT2 properties, NMR spectrum
   Ute Becker             : Parallelization
   Giovanni Bistoni       : ED, misc. LED, open-shell LED, HFLD
   Martin Brehm           : Molecular dynamics
   Dmytro Bykov           : SCF Hessian
   Vijay G. Chilkuri      : MRCI spin determinant printing, contributions to CSF-ICE
   Dipayan Datta          : RHF DLPNO-CCSD density
   Achintya Kumar Dutta   : EOM-CC, STEOM-CC
   Dmitry Ganyushin       : Spin-Orbit,Spin-Spin,Magnetic field MRCI
   Miquel Garcia          : C-PCM and meta-GGA Hessian, CC/C-PCM, Gaussian charge scheme
   Yang Guo               : DLPNO-NEVPT2, F12-NEVPT2, CIM, IAO-localization
   Andreas Hansen         : Spin unrestricted coupled pair/coupled cluster methods
   Benjamin Helmich-Paris : MC-RPA, TRAH-SCF, COSX integrals
   Lee Huntington         : MR-EOM, pCC
   Robert Izsak           : Overlap fitted RIJCOSX, COSX-SCS-MP3, EOM
   Marcus Kettner         : VPT2
   Christian Kollmar      : KDIIS, OOCD, Brueckner-CCSD(T), CCSD density, CASPT2, CASPT2-K
   Simone Kossmann        : Meta GGA functionals, TD-DFT gradient, OOMP2, MP2 Hessian
   Martin Krupicka        : Initial AUTO-CI
   Lucas Lang             : DCDCAS
   Marvin Lechner         : AUTO-CI (C++ implementation), FIC-MRCC
   Dagmar Lenk            : GEPOL surface, SMD
   Dimitrios Liakos       : Extrapolation schemes; Compound Job, initial MDCI parallelization
   Dimitrios Manganas     : Further ROCIS development; embedding schemes
   Dimitrios Pantazis     : SARC Basis sets
   Anastasios Papadopoulos: AUTO-CI, single reference methods and gradients
   Taras Petrenko         : DFT Hessian,TD-DFT gradient, ASA, ECA, R-Raman, ABS, FL, XAS/XES, NRVS
   Peter Pinski           : DLPNO-MP2, DLPNO-MP2 Gradient
   Christoph Reimann      : Effective Core Potentials
   Marius Retegan         : Local ZFS, SOC
   Christoph Riplinger    : Optimizer, TS searches, QM/MM, DLPNO-CCSD(T), (RO)-DLPNO pert. Triples
   Tobias Risthaus        : Range-separated hybrids, TD-DFT gradient, RPA, STAB
   Michael Roemelt        : Original ROCIS implementation
   Masaaki Saitow         : Open-shell DLPNO-CCSD energy and density
   Barbara Sandhoefer     : DKH picture change effects
   Avijit Sen             : IP-ROCIS
   Kantharuban Sivalingam : CASSCF convergence, NEVPT2, FIC-MRCI
   Bernardo de Souza      : ESD, SOC TD-DFT
   Georgi Stoychev        : AutoAux, RI-MP2 NMR, DLPNO-MP2 response
   Willem Van den Heuvel  : Paramagnetic NMR
   Boris Wezisla          : Elementary symmetry handling
   Frank Wennmohs         : Technical directorship


 We gratefully acknowledge several colleagues who have allowed us to
 interface, adapt or use parts of their codes:
   Stefan Grimme, W. Hujo, H. Kruse, P. Pracht,  : VdW corrections, initial TS optimization,
                  C. Bannwarth, S. Ehlert          DFT functionals, gCP, sTDA/sTD-DF
   Ed Valeev, F. Pavosevic, A. Kumar             : LibInt (2-el integral package), F12 methods
   Garnet Chan, S. Sharma, J. Yang, R. Olivares  : DMRG
   Ulf Ekstrom                                   : XCFun DFT Library
   Mihaly Kallay                                 : mrcc  (arbitrary order and MRCC methods)
   Jiri Pittner, Ondrej Demel                    : Mk-CCSD
   Frank Weinhold                                : gennbo (NPA and NBO analysis)
   Christopher J. Cramer and Donald G. Truhlar   : smd solvation model
   Lars Goerigk                                  : TD-DFT with DH, B97 family of functionals
   V. Asgeirsson, H. Jonsson                     : NEB implementation
   FAccTs GmbH                                   : IRC, NEB, NEB-TS, DLPNO-Multilevel, CI-OPT
                                                   MM, QMMM, 2- and 3-layer-ONIOM, Crystal-QMMM,
                                                   LR-CPCM, SF, NACMEs, symmetry and pop. for TD-DFT,
                                                   nearIR, NL-DFT gradient (VV10), updates on ESD,
                                                   ML-optimized integration grids
   S Lehtola, MJT Oliveira, MAL Marques          : LibXC Library
   Liviu Ungur et al                             : ANISO software


 Your calculation uses the libint2 library for the computation of 2-el integrals
 For citations please refer to: http://libint.valeyev.net

 Your ORCA version has been built with support for libXC version: 5.1.0
 For citations please refer to: https://tddft.org/programs/libxc/

 This ORCA versions uses:
   CBLAS   interface :  Fast vector & matrix operations
   LAPACKE interface :  Fast linear algebra routines
   SCALAPACK package :  Parallel linear algebra routines
   Shared memory     :  Shared parallel matrices
   BLAS/LAPACK       :  OpenBLAS 0.3.15  USE64BITINT DYNAMIC_ARCH NO_AFFINITY Haswell SINGLE_THREADED
        Core in use  :  Haswell
   Copyright (c) 2011-2014, The OpenBLAS Project




***************************************
The coordinates will be read from file: orca.073.xyz
***************************************


Your calculation utilizes the atom-pairwise dispersion correction
with the Becke-Johnson damping scheme (D3BJ)
Cite in your paper:
S.Grimme, S.Ehrlich, L.Goerigk, J Comput Chem, (2011), 32, 1456–1465 
S.Grimme, J.Antony, S.Ehrlich and H.Krieg, J.Chem.Phys., 132, (2010), 154104 
   

================================================================================

----- Orbital basis set information -----
Your calculation utilizes the basis: def2-TZVP
   F. Weigend and R. Ahlrichs, Phys. Chem. Chem. Phys. 7, 3297 (2005).

----- AuxJ basis set information -----
Your calculation utilizes the auxiliary basis: def2/J
   F. Weigend, Phys. Chem. Chem. Phys. 8, 1057 (2006).

================================================================================
                                        WARNINGS
                       Please study these warnings very carefully!
================================================================================


WARNING: Geometry Optimization
  ===> : Switching off AutoStart
         For restart on a previous wavefunction, please use MOREAD

INFO   : the flag for use of the SHARK integral package has been found!

================================================================================
                                       INPUT FILE
================================================================================
NAME = orca.inp
|  1> !B3LYP DEF2-TZVP D3BJ
|  2> !OptTS NumFreq TIGHTOPT TightSCF defgrid2
|  3> %SCF
|  4>     MaxIter 2000       # Here setting MaxIter to a very high number. Intended for systems that require sometimes 1000 iterations before converging (very rare).
|  5>     DIISMaxEq 5        # Default value is 5. A value of 15-40 necessary for difficult systems.
|  6>     directresetfreq 15 # Default value is 15. A value of 1 (very expensive) is sometimes required. A value between 1 and 15 may be more cost-effective.
|  7> END
|  8> %CPCM EPSILON 6.02 REFRAC 1.3723 END
|  9> %PAL NPROCS 32 END
| 10> %maxcore 2000
| 11> %GEOM
| 12>     Calc_Hess true # Calculate Hessian in the beginning
| 13>     NumHess true # Request numerical Hessian (analytical not available)
| 14>     Recalc_Hess 5  # Recalculate the Hessian every 5 steps
| 15> END
| 16> * xyzfile 1 1 orca.073.xyz
| 17> 
| 18>                          ****END OF INPUT****
================================================================================

                       *****************************
                       * Geometry Optimization Run *
                       *****************************

Geometry optimization settings:
Update method            Update   .... Bofill
Choice of coordinates    CoordSys .... Z-matrix Internals
Initial Hessian          InHess   .... Almoef's Model

Convergence Tolerances:
Energy Change            TolE     ....  1.0000e-06 Eh
Max. Gradient            TolMAXG  ....  1.0000e-04 Eh/bohr
RMS Gradient             TolRMSG  ....  3.0000e-05 Eh/bohr
Max. Displacement        TolMAXD  ....  1.0000e-03 bohr
RMS Displacement         TolRMSD  ....  6.0000e-04 bohr
Strict Convergence                ....  False
------------------------------------------------------------------------------
                        ORCA OPTIMIZATION COORDINATE SETUP
------------------------------------------------------------------------------

The optimization will be done in new redundant internal coordinates
Making redundant internal coordinates   ...  (new redundants) done
Following TS mode number                ...     0
Evaluating the initial hessian          ...  (Is done on the fly) done
Evaluating the coordinates              ...  done
Calculating the B-matrix                .... done
Calculating the G-matrix                .... done
Diagonalizing the G-matrix              .... done
The first mode is                       ....   52
The number of degrees of freedom        ....   48

    -----------------------------------------------------------------
                    Redundant Internal Coordinates


    -----------------------------------------------------------------
         Definition                    Initial Value    d2E/dq (diagonal element)
    -----------------------------------------------------------------
      1. B(C   1,C   0)                  1.3884         0.000000   
      2. B(C   2,C   1)                  1.3965         0.000000   
      3. B(C   3,C   2)                  1.3977         0.000000   
      4. B(C   4,C   3)                  1.3870         0.000000   
      5. B(C   5,C   4)                  1.3929         0.000000   
      6. B(C   5,C   0)                  1.3911         0.000000   
      7. B(H   6,C   0)                  1.0821         0.000000   
      8. B(H   7,C   5)                  1.0823         0.000000   
      9. B(H   8,C   1)                  1.0831         0.000000   
     10. B(H   9,C   3)                  1.0835         0.000000   
     11. B(H  10,C   4)                  1.0821         0.000000   
     12. B(C  11,C   2)                  1.4753         0.000000   
     13. B(N  12,C  11)                  1.4099         0.000000   
     14. B(H  13,C  11)                  1.0808         0.000000   
     15. B(H  15,N  12)                  1.0107         0.000000   
     16. B(H  16,N  12)                  1.0105         0.000000   
     17. B(Cu 17,H  14)                  1.5261         0.000000   
     18. B(Cu 17,N  12)                  2.1125         0.000000   
     19. B(Cu 17,C  11)                  2.0345         0.000000   
     20. A(C   5,C   0,H   6)          120.1719         0.000000   
     21. A(C   1,C   0,H   6)          119.7779         0.000000   
     22. A(C   1,C   0,C   5)          120.0501         0.000000   
     23. A(C   0,C   1,H   8)          120.1537         0.000000   
     24. A(C   2,C   1,H   8)          119.6422         0.000000   
     25. A(C   0,C   1,C   2)          120.2031         0.000000   
     26. A(C   3,C   2,C  11)          122.1795         0.000000   
     27. A(C   1,C   2,C  11)          118.2761         0.000000   
     28. A(C   1,C   2,C   3)          119.5342         0.000000   
     29. A(C   2,C   3,C   4)          120.1055         0.000000   
     30. A(C   2,C   3,H   9)          120.6845         0.000000   
     31. A(C   4,C   3,H   9)          119.1996         0.000000   
     32. A(C   3,C   4,C   5)          120.1449         0.000000   
     33. A(C   3,C   4,H  10)          119.7383         0.000000   
     34. A(C   5,C   4,H  10)          120.1160         0.000000   
     35. A(C   0,C   5,C   4)          119.9576         0.000000   
     36. A(C   4,C   5,H   7)          119.9714         0.000000   
     37. A(C   0,C   5,H   7)          120.0705         0.000000   
     38. A(H  13,C  11,Cu 17)          110.4435         0.000000   
     39. A(N  12,C  11,Cu 17)           73.1329         0.000000   
     40. A(C   2,C  11,Cu 17)          119.2503         0.000000   
     41. A(N  12,C  11,H  13)          113.3609         0.000000   
     42. A(C   2,C  11,H  13)          115.0772         0.000000   
     43. A(C   2,C  11,N  12)          118.8888         0.000000   
     44. A(H  16,N  12,Cu 17)          118.9181         0.000000   
     45. A(H  15,N  12,Cu 17)          115.5146         0.000000   
     46. A(C  11,N  12,Cu 17)           67.1710         0.000000   
     47. A(H  15,N  12,H  16)          113.9273         0.000000   
     48. A(C  11,N  12,H  16)          117.2380         0.000000   
     49. A(C  11,N  12,H  15)          116.3616         0.000000   
     50. A(C  11,Cu 17,N  12)           39.6961         0.000000   
     51. A(N  12,Cu 17,H  14)           98.3408         0.000000   
     52. A(C  11,Cu 17,H  14)           58.7535         0.000000   
     53. D(C   2,C   1,C   0,C   5)     -0.3861         0.000000   
     54. D(C   2,C   1,C   0,H   6)    179.5134         0.000000   
     55. D(H   8,C   1,C   0,C   5)    179.9790         0.000000   
     56. D(H   8,C   1,C   0,H   6)     -0.1214         0.000000   
     57. D(C   3,C   2,C   1,C   0)      0.7942         0.000000   
     58. D(C  11,C   2,C   1,H   8)      1.5684         0.000000   
     59. D(C  11,C   2,C   1,C   0)   -178.0683         0.000000   
     60. D(C   3,C   2,C   1,H   8)   -179.5691         0.000000   
     61. D(H   9,C   3,C   2,C  11)     -3.0990         0.000000   
     62. D(H   9,C   3,C   2,C   1)    178.0847         0.000000   
     63. D(C   4,C   3,C   2,C  11)    178.0848         0.000000   
     64. D(C   4,C   3,C   2,C   1)     -0.7315         0.000000   
     65. D(C   5,C   4,C   3,H   9)   -178.5721         0.000000   
     66. D(H  10,C   4,C   3,C   2)    179.9292         0.000000   
     67. D(C   5,C   4,C   3,C   2)      0.2616         0.000000   
     68. D(H  10,C   4,C   3,H   9)      1.0954         0.000000   
     69. D(H   7,C   5,C   4,H  10)      0.2304         0.000000   
     70. D(C   0,C   5,C   4,H  10)   -179.5149         0.000000   
     71. D(C   0,C   5,C   4,C   3)      0.1514         0.000000   
     72. D(H   7,C   5,C   0,H   6)      0.2665         0.000000   
     73. D(H   7,C   5,C   4,C   3)    179.8967         0.000000   
     74. D(C   4,C   5,C   0,H   6)   -179.9885         0.000000   
     75. D(C   4,C   5,C   0,C   1)     -0.0893         0.000000   
     76. D(H   7,C   5,C   0,C   1)   -179.8344         0.000000   
     77. D(Cu 17,C  11,C   2,C   3)     52.7328         0.000000   
     78. D(Cu 17,C  11,C   2,C   1)   -128.4366         0.000000   
     79. D(H  13,C  11,C   2,C   3)   -172.5137         0.000000   
     80. D(H  13,C  11,C   2,C   1)      6.3170         0.000000   
     81. D(N  12,C  11,C   2,C   3)    -33.2067         0.000000   
     82. D(N  12,C  11,C   2,C   1)    145.6239         0.000000   
     83. D(H  15,N  12,C  11,C   2)   -137.1876         0.000000   
     84. D(Cu 17,N  12,C  11,H  13)   -105.4630         0.000000   
     85. D(Cu 17,N  12,C  11,C   2)    114.5737         0.000000   
     86. D(H  16,N  12,C  11,Cu 17)   -111.9251         0.000000   
     87. D(H  16,N  12,C  11,H  13)    142.6118         0.000000   
     88. D(H  16,N  12,C  11,C   2)      2.6486         0.000000   
     89. D(H  15,N  12,C  11,Cu 17)    108.2387         0.000000   
     90. D(H  15,N  12,C  11,H  13)      2.7757         0.000000   
     91. D(H  14,Cu 17,N  12,H  16)    113.6656         0.000000   
     92. D(H  14,Cu 17,N  12,C  11)      4.1069         0.000000   
     93. D(C  11,Cu 17,N  12,H  16)    109.5586         0.000000   
     94. D(C  11,Cu 17,N  12,H  15)   -109.4459         0.000000   
     95. D(H  14,Cu 17,C  11,H  13)    -66.0268         0.000000   
     96. D(H  14,Cu 17,C  11,N  12)   -175.2457         0.000000   
     97. D(H  14,Cu 17,C  11,C   2)     70.6246         0.000000   
     98. D(H  14,Cu 17,N  12,H  15)   -105.3390         0.000000   
     99. D(N  12,Cu 17,C  11,H  13)    109.2189         0.000000   
    100. D(N  12,Cu 17,C  11,C   2)   -114.1297         0.000000   
    -----------------------------------------------------------------

Number of atoms                         .... 18
Number of degrees of freedom            .... 100

         *************************************************************
         *                GEOMETRY OPTIMIZATION CYCLE   1            *
         *************************************************************
---------------------------------
CARTESIAN COORDINATES (ANGSTROEM)
---------------------------------
  C     -2.975820    1.861560    1.659403
  C     -1.840705    2.622991    1.415736
  C     -0.626351    2.286222    2.017477
  C     -0.558251    1.167926    2.853120
  C     -1.693865    0.408764    3.093316
  C     -2.905029    0.754455    2.498647
  H     -3.915043    2.133382    1.195720
  H     -3.789063    0.159105    2.686697
  H     -1.893842    3.485165    0.762287
  H      0.380944    0.871700    3.304985
  H     -1.634128   -0.456543    3.740390
  C      0.542700    3.149572    1.763388
  N      1.487511    3.337226    2.792977
  H      0.333921    4.050425    1.203900
  H      1.061508    2.384300    0.216650
  H      1.827356    4.280036    2.923855
  H      1.338378    2.831920    3.655293
  Cu     2.282242    2.306257    1.129198

----------------------------
CARTESIAN COORDINATES (A.U.)
----------------------------
  NO LB      ZA    FRAG     MASS         X           Y           Z
   0 C     6.0000    0    12.011   -5.623484    3.517839    3.135818
   1 C     6.0000    0    12.011   -3.478429    4.956735    2.675353
   2 C     6.0000    0    12.011   -1.183631    4.320333    3.812479
   3 C     6.0000    0    12.011   -1.054942    2.207059    5.391616
   4 C     6.0000    0    12.011   -3.200941    0.772452    5.845521
   5 C     6.0000    0    12.011   -5.489710    1.425713    4.721758
   6 H     1.0000    0     1.008   -7.398360    4.031507    2.259583
   7 H     1.0000    0     1.008   -7.160291    0.300665    5.077121
   8 H     1.0000    0     1.008   -3.578844    6.586007    1.440514
   9 H     1.0000    0     1.008    0.719879    1.647273    6.245517
  10 H     1.0000    0     1.008   -3.088055   -0.862742    7.068313
  11 C     6.0000    0    12.011    1.025555    5.951828    3.332321
  12 N     7.0000    0    14.007    2.810989    6.306443    5.277962
  13 H     1.0000    0     1.008    0.631019    7.654193    2.275042
  14 H     1.0000    0     1.008    2.005959    4.505673    0.409409
  15 H     1.0000    0     1.008    3.453201    8.088096    5.525286
  16 H     1.0000    0     1.008    2.529167    5.351554    6.907503
  17 Cu   29.0000    0    63.550    4.312812    4.358194    2.133874

--------------------------------
INTERNAL COORDINATES (ANGSTROEM)
--------------------------------
 C      0   0   0     0.000000000000     0.00000000     0.00000000
 C      1   0   0     1.388393154473     0.00000000     0.00000000
 C      2   1   0     1.396482399501   120.20312472     0.00000000
 C      3   2   1     1.397685203373   119.53416188     0.79420698
 C      4   3   2     1.386953118581   120.10548037   359.26846311
 C      1   2   3     1.391051191434   120.05011486   359.61386957
 H      1   2   3     1.082141497681   119.77786438   179.51339984
 H      6   1   2     1.082275259681   120.07050571   180.16563722
 H      2   1   3     1.083125796827   120.15368496   180.36515876
 H      4   3   2     1.083521482724   120.68449159   178.08466737
 H      5   4   3     1.082141433605   119.73830190   179.92918867
 C      3   2   1     1.475335382730   118.27606868   181.93173462
 N     12   3   2     1.409941368306   118.88877195   145.62391630
 H     12   3   2     1.080810498143   115.07724979     6.31695640
 H     12   3   2     1.802000010610    97.32205425   275.08766118
 H     13  12   3     1.010700159516   116.36156508   222.81242929
 H     13  12   3     1.010526488879   117.23798820     2.64856733
 Cu    15  12   3     1.526114243595    74.85639072   236.08305508

---------------------------
INTERNAL COORDINATES (A.U.)
---------------------------
 C      0   0   0     0.000000000000     0.00000000     0.00000000
 C      1   0   0     2.623682828164     0.00000000     0.00000000
 C      2   1   0     2.638969285897   120.20312472     0.00000000
 C      3   2   1     2.641242255809   119.53416188     0.79420698
 C      4   3   2     2.620961554706   120.10548037   359.26846311
 C      1   2   3     2.628705790076   120.05011486   359.61386957
 H      1   2   3     2.044951068769   119.77786438   179.51339984
 H      6   1   2     2.045203842315   120.07050571   180.16563722
 H      2   1   3     2.046811124588   120.15368496   180.36515876
 H      4   3   2     2.047558862569   120.68449159   178.08466737
 H      5   4   3     2.044950947681   119.73830190   179.92918867
 C      3   2   1     2.787979829044   118.27606868   181.93173462
 N     12   3   2     2.664403050984   118.88877195   145.62391630
 H     12   3   2     2.042435844157   115.07724979     6.31695640
 H     12   3   2     3.405286513377    97.32205425   275.08766118
 H     13  12   3     1.909946504996   116.36156508   222.81242929
 H     13  12   3     1.909618315055   117.23798820     2.64856733
 Cu    15  12   3     2.883937969471    74.85639072   236.08305508

---------------------
BASIS SET INFORMATION
---------------------
There are 4 groups of distinct atoms

 Group   1 Type C   : 11s6p2d1f contracted to 5s3p2d1f pattern {62111/411/11/1}
 Group   2 Type H   : 5s1p contracted to 3s1p pattern {311/1}
 Group   3 Type N   : 11s6p2d1f contracted to 5s3p2d1f pattern {62111/411/11/1}
 Group   4 Type Cu  : 17s11p7d1f contracted to 6s4p4d1f pattern {842111/6311/4111/1}

Atom   0C    basis set group =>   1
Atom   1C    basis set group =>   1
Atom   2C    basis set group =>   1
Atom   3C    basis set group =>   1
Atom   4C    basis set group =>   1
Atom   5C    basis set group =>   1
Atom   6H    basis set group =>   2
Atom   7H    basis set group =>   2
Atom   8H    basis set group =>   2
Atom   9H    basis set group =>   2
Atom  10H    basis set group =>   2
Atom  11C    basis set group =>   1
Atom  12N    basis set group =>   3
Atom  13H    basis set group =>   2
Atom  14H    basis set group =>   2
Atom  15H    basis set group =>   2
Atom  16H    basis set group =>   2
Atom  17Cu   basis set group =>   4
---------------------------------
AUXILIARY/J BASIS SET INFORMATION
---------------------------------
There are 4 groups of distinct atoms

 Group   1 Type C   : 12s5p4d2f1g contracted to 6s4p3d1f1g pattern {711111/2111/211/2/1}
 Group   2 Type H   : 5s2p1d contracted to 3s1p1d pattern {311/2/1}
 Group   3 Type N   : 12s5p4d2f1g contracted to 6s4p3d1f1g pattern {711111/2111/211/2/1}
 Group   4 Type Cu  : 19s5p5d3f3g contracted to 8s5p4d3f3g pattern {121111111/11111/2111/111/111}

Atom   0C    basis set group =>   1
Atom   1C    basis set group =>   1
Atom   2C    basis set group =>   1
Atom   3C    basis set group =>   1
Atom   4C    basis set group =>   1
Atom   5C    basis set group =>   1
Atom   6H    basis set group =>   2
Atom   7H    basis set group =>   2
Atom   8H    basis set group =>   2
Atom   9H    basis set group =>   2
Atom  10H    basis set group =>   2
Atom  11C    basis set group =>   1
Atom  12N    basis set group =>   3
Atom  13H    basis set group =>   2
Atom  14H    basis set group =>   2
Atom  15H    basis set group =>   2
Atom  16H    basis set group =>   2
Atom  17Cu   basis set group =>   4


           ************************************************************
           *        Program running with 32 parallel MPI-processes    *
           *              working on a shared directory               *
           ************************************************************
------------------------------------------------------------------------------
                           ORCA GTO INTEGRAL CALCULATION
                           -- RI-GTO INTEGRALS CHOSEN --
------------------------------------------------------------------------------
------------------------------------------------------------------------------
                   ___                                                        
                  /   \      - P O W E R E D   B Y -                         
                 /     \                                                     
                 |  |  |   _    _      __       _____    __    __             
                 |  |  |  | |  | |    /  \     |  _  \  |  |  /  |          
                  \  \/   | |  | |   /    \    | | | |  |  | /  /          
                 / \  \   | |__| |  /  /\  \   | |_| |  |  |/  /          
                |  |  |   |  __  | /  /__\  \  |    /   |      \           
                |  |  |   | |  | | |   __   |  |    \   |  |\   \          
                \     /   | |  | | |  |  |  |  | |\  \  |  | \   \       
                 \___/    |_|  |_| |__|  |__|  |_| \__\ |__|  \__/        
                                                                              
                      - O R C A' S   B I G   F R I E N D -                    
                                      &                                       
                       - I N T E G R A L  F E E D E R -                       
                                                                              
 v1 FN, 2020, v2 2021                                                         
------------------------------------------------------------------------------


Reading SHARK input file orca.SHARKINP.tmp ... ok
----------------------
SHARK INTEGRAL PACKAGE
----------------------

Number of atoms                             ...     18
Number of basis functions                   ...    347
Number of shells                            ...    139
Maximum angular momentum                    ...      3
Integral batch strategy                     ... SHARK/LIBINT Hybrid
RI-J (if used) integral strategy            ... SPLIT-RIJ (Revised 2003 algorithm where possible)
Printlevel                                  ...      1
Contraction scheme used                     ... SEGMENTED contraction
Coulomb Range Separation                    ... NOT USED
Exchange Range Separation                   ... NOT USED
Finite Nucleus Model                        ... NOT USED
Auxiliary Coulomb fitting basis             ... AVAILABLE
   # of basis functions in Aux-J            ...    582
   # of shells in Aux-J                     ...    188
   Maximum angular momentum in Aux-J        ...      4
Auxiliary J/K fitting basis                 ... NOT available
Auxiliary Correlation fitting basis         ... NOT available
Auxiliary 'external' fitting basis          ... NOT available
Integral threshold                          ...     2.500000e-11
Primitive cut-off                           ...     2.500000e-12
Primitive pair pre-selection threshold      ...     2.500000e-12

Calculating pre-screening integrals         ... done (  0.2 sec) Dimension = 139
Organizing shell pair data                  ... done (  0.6 sec)
Shell pair information
Total number of shell pairs                 ...      9730
Shell pairs after pre-screening             ...      8632
Total number of primitive shell pairs       ...     31637
Primitive shell pairs kept                  ...     20252
          la=0 lb=0:   2310 shell pairs
          la=1 lb=0:   2404 shell pairs
          la=1 lb=1:    646 shell pairs
          la=2 lb=0:   1310 shell pairs
          la=2 lb=1:    687 shell pairs
          la=2 lb=2:    197 shell pairs
          la=3 lb=0:    572 shell pairs
          la=3 lb=1:    303 shell pairs
          la=3 lb=2:    163 shell pairs
          la=3 lb=3:     40 shell pairs

Calculating one electron integrals          ... done (  0.3 sec)
Calculating RI/J V-Matrix + Cholesky decomp.... done (  2.5 sec)
Calculating Nuclear repulsion               ... done (  0.0 sec) ENN=    611.619150819282 Eh

SHARK setup successfully completed in   6.4 seconds

Maximum memory used throughout the entire GTOINT-calculation: 25.6 MB


           ************************************************************
           *        Program running with 32 parallel MPI-processes    *
           *              working on a shared directory               *
           ************************************************************
-------------------------------------------------------------------------------
                                 ORCA SCF
-------------------------------------------------------------------------------

------------
SCF SETTINGS
------------
Hamiltonian:
 Density Functional     Method          .... DFT(GTOs)
 Exchange Functional    Exchange        .... B88
   X-Alpha parameter    XAlpha          ....  0.666667
   Becke's b parameter  XBeta           ....  0.004200
 Correlation Functional Correlation     .... LYP
 LDA part of GGA corr.  LDAOpt          .... VWN-5
 Gradients option       PostSCFGGA      .... off
 Hybrid DFT is turned on
   Fraction HF Exchange ScalHFX         ....  0.200000
   Scaling of DF-GGA-X  ScalDFX         ....  0.720000
   Scaling of DF-GGA-C  ScalDFC         ....  0.810000
   Scaling of DF-LDA-C  ScalLDAC        ....  1.000000
   Perturbative correction              ....  0.000000
   Density functional embedding theory  .... OFF
   NL short-range parameter             ....  4.800000
 RI-approximation to the Coulomb term is turned on
   Number of AuxJ basis functions       .... 582
   RIJ-COSX (HFX calculated with COS-X)).... on


General Settings:
 Integral files         IntName         .... orca
 Hartree-Fock type      HFTyp           .... RHF
 Total Charge           Charge          ....    1
 Multiplicity           Mult            ....    1
 Number of Electrons    NEL             ....   86
 Basis Dimension        Dim             ....  347
 Nuclear Repulsion      ENuc            ....    611.6191508193 Eh

Convergence Acceleration:
 DIIS                   CNVDIIS         .... on
   Start iteration      DIISMaxIt       ....    12
   Startup error        DIISStart       ....  0.200000
   # of expansion vecs  DIISMaxEq       ....     5
   Bias factor          DIISBfac        ....   1.050
   Max. coefficient     DIISMaxC        ....  10.000
 Trust-Rad. Augm. Hess. CNVTRAH         .... auto
   Auto Start mean grad. ratio tolernc. ....  1.125000
   Auto Start start iteration           ....    20
   Auto Start num. interpolation iter.  ....    10
   Max. Number of Micro iterations      ....    16
   Max. Number of Macro iterations      .... Maxiter - #DIIS iter
   Number of Davidson start vectors     ....     2
   Converg. threshold I  (grad. norm)   ....   1.000e-05
   Converg. threshold II (energy diff.) ....   1.000e-08
   Grad. Scal. Fac. for Micro threshold ....   0.100
   Minimum threshold for Micro iter.    ....   0.010
   NR start threshold (gradient norm)   ....   0.001
   Initial trust radius                 ....   0.400
   Minimum AH scaling param. (alpha)    ....   1.000
   Maximum AH scaling param. (alpha)    .... 1000.000
   Orbital update algorithm             .... Taylor
   White noise on init. David. guess    .... on
   Maximum white noise                  ....   0.010
   Quad. conv. algorithm                .... NR
 SOSCF                  CNVSOSCF        .... off
 Level Shifting         CNVShift        .... on
   Level shift para.    LevelShift      ....    0.2500
   Turn off err/grad.   ShiftErr        ....    0.0010
 Zerner damping         CNVZerner       .... off
 Static damping         CNVDamp         .... on
   Fraction old density DampFac         ....    0.7000
   Max. Damping (<1)    DampMax         ....    0.9800
   Min. Damping (>=0)   DampMin         ....    0.0000
   Turn off err/grad.   DampErr         ....    0.1000
 Fernandez-Rico         CNVRico         .... off

SCF Procedure:
 Maximum # iterations   MaxIter         ....  2000
 SCF integral mode      SCFMode         .... Direct
   Integral package                     .... SHARK and LIBINT hybrid scheme
 Reset frequency        DirectResetFreq ....    15
 Integral Threshold     Thresh          ....  2.500e-11 Eh
 Primitive CutOff       TCut            ....  2.500e-12 Eh

Convergence Tolerance:
 Convergence Check Mode ConvCheckMode   .... Total+1el-Energy
 Convergence forced     ConvForced      .... 0
 Energy Change          TolE            ....  1.000e-08 Eh
 1-El. energy change                    ....  1.000e-05 Eh
 DIIS Error             TolErr          ....  5.000e-07


Diagonalization of the overlap matrix:
Smallest eigenvalue                        ... 8.519e-06
Time for diagonalization                   ...    0.092 sec
Threshold for overlap eigenvalues          ... 1.000e-08
Number of eigenvalues below threshold      ... 0
Time for construction of square roots      ...    0.527 sec
Total time needed                          ...    1.085 sec

Time for model grid setup =    1.797 sec

------------------------------
INITIAL GUESS: MODEL POTENTIAL
------------------------------
Loading Hartree-Fock densities                     ... done
Calculating cut-offs                               ... done
Initializing the effective Hamiltonian             ... done
Setting up the integral package (SHARK)            ... done
Starting the Coulomb interaction                   ... done (   2.5 sec)
Reading the grid                                   ... done
Mapping shells                                     ... done
Starting the XC term evaluation                    ... done (   0.3 sec)
  promolecular density results
     # of electrons  =     86.992271524
     EX              =   -111.093304968
     EC              =     -3.308535187
     EX+EC           =   -114.401840155
Transforming the Hamiltonian                       ... done (   1.3 sec)
Diagonalizing the Hamiltonian                      ... done (   1.2 sec)
Back transforming the eigenvectors                 ... done (   0.1 sec)
Now organizing SCF variables                       ... done
                      ------------------
                      INITIAL GUESS DONE (   8.0 sec)
                      ------------------
-------------------
DFT GRID GENERATION
-------------------

General Integration Accuracy     IntAcc      ... 4.388
Radial Grid Type                 RadialGrid  ... OptM3 with GC (2021)
Angular Grid (max. ang.)         AngularGrid ... 4 (Lebedev-302)
Angular grid pruning method      GridPruning ... 4 (adaptive)
Weight generation scheme         WeightScheme... Becke
Basis function cutoff            BFCut       ... 1.0000e-11
Integration weight cutoff        WCut        ... 1.0000e-14
Angular grids for H and He will be reduced by one unit
Partially contracted basis set               ... off
Rotationally invariant grid construction     ... off

Total number of grid points                  ...    88063
Total number of batches                      ...     1384
Average number of points per batch           ...       63
Average number of grid points per atom       ...     4892
Time for grid setup =    5.048 sec

--------------------
COSX GRID GENERATION
--------------------

GRIDX 1
-------
General Integration Accuracy     IntAcc      ... 3.816
Radial Grid Type                 RadialGrid  ... OptM3 with GC (2021)
Angular Grid (max. ang.)         AngularGrid ... 1 (Lebedev-50)
Angular grid pruning method      GridPruning ... 4 (adaptive)
Weight generation scheme         WeightScheme... Becke
Basis function cutoff            BFCut       ... 1.0000e-11
Integration weight cutoff        WCut        ... 1.0000e-14
Angular grids for H and He will be reduced by one unit
Partially contracted basis set               ... on
Rotationally invariant grid construction     ... off

Total number of grid points                  ...    11048
Total number of batches                      ...      178
Average number of points per batch           ...       62
Average number of grid points per atom       ...      614
UseSFitting                                  ... on

GRIDX 2
-------
General Integration Accuracy     IntAcc      ... 4.020
Radial Grid Type                 RadialGrid  ... OptM3 with GC (2021)
Angular Grid (max. ang.)         AngularGrid ... 2 (Lebedev-110)
Angular grid pruning method      GridPruning ... 4 (adaptive)
Weight generation scheme         WeightScheme... Becke
Basis function cutoff            BFCut       ... 1.0000e-11
Integration weight cutoff        WCut        ... 1.0000e-14
Angular grids for H and He will be reduced by one unit
Partially contracted basis set               ... on
Rotationally invariant grid construction     ... off

Total number of grid points                  ...    23735
Total number of batches                      ...      381
Average number of points per batch           ...       62
Average number of grid points per atom       ...     1319
UseSFitting                                  ... on

GRIDX 3
-------
General Integration Accuracy     IntAcc      ... 4.338
Radial Grid Type                 RadialGrid  ... OptM3 with GC (2021)
Angular Grid (max. ang.)         AngularGrid ... 3 (Lebedev-194)
Angular grid pruning method      GridPruning ... 4 (adaptive)
Weight generation scheme         WeightScheme... Becke
Basis function cutoff            BFCut       ... 1.0000e-11
Integration weight cutoff        WCut        ... 1.0000e-14
Angular grids for H and He will be reduced by one unit
Partially contracted basis set               ... on
Rotationally invariant grid construction     ... off

Total number of grid points                  ...    52235
Total number of batches                      ...      825
Average number of points per batch           ...       63
Average number of grid points per atom       ...     2902
UseSFitting                                  ... on

Time for X-Grid setup             =    9.273 sec


--------------------
CPCM SOLVATION MODEL
--------------------
CPCM parameters:
  Epsilon                                         ...       6.0200
  Refrac                                          ...       1.3723
  Rsolv                                           ...       1.3000
  Surface type                                    ... GAUSSIAN VDW
  Epsilon function type                           ...         CPCM
Radii:
 Radius for C  used is    3.8550 Bohr (=   2.0400 Ang.)
 Radius for H  used is    2.4944 Bohr (=   1.3200 Ang.)
 Radius for N  used is    3.5149 Bohr (=   1.8600 Ang.)
 Radius for Cu used is    3.1747 Bohr (=   1.6800 Ang.)
Calculating surface                               ...        done! (  0.0s)
GEPOL surface points                              ...         1020
GEPOL Volume                                      ...    1071.2201
GEPOL Surface-area                                ...     607.0116
Calculating surface distance matrix               ...        done! (  0.0s)
Performing Cholesky decomposition & store         ...        done! (  5.7s)
Overall time for CPCM initialization              ...                 5.7s
--------------
SCF ITERATIONS
--------------
ITER       Energy         Delta-E        Max-DP      RMS-DP      [F,P]     Damp
               ***  Starting incremental Fock matrix formation  ***
  0  -1966.8806560219   0.000000000000 0.03940137  0.00082666  0.2263783 0.7000
  1  -1966.9747923376  -0.094136315696 0.02514933  0.00061061  0.0994903 0.7000
                               ***Turning on DIIS***
  2  -1967.0136010161  -0.038808678586 0.06209252  0.00115305  0.0298557 0.0000
  3  -1967.0701416624  -0.056540646240 0.01714920  0.00039936  0.0559134 0.0000
  4  -1967.0853861729  -0.015244510508 0.00914986  0.00016784  0.0077406 0.0000
  5  -1967.0861249665  -0.000738793620 0.00528183  0.00006879  0.0055619 0.0000
  6  -1967.0861950125  -0.000070045976 0.00199584  0.00003851  0.0058364 0.0000
  7  -1967.0862227662  -0.000027753742 0.00132141  0.00001733  0.0029758 0.0000
  8  -1967.0862339101  -0.000011143835 0.00171601  0.00001416  0.0002763 0.0000
               *** Restarting incremental Fock matrix formation ***
                                   *** Resetting DIIS ***
  9  -1967.0862488726  -0.000014962504 0.00027831  0.00000906  0.0001341 0.0000
 10  -1967.0862487430   0.000000129545 0.00016294  0.00000278  0.0004287 0.0000
 11  -1967.0862489676  -0.000000224560 0.00008735  0.00000121  0.0002751 0.0000
 12  -1967.0862490187  -0.000000051137 0.00005701  0.00000108  0.0000932 0.0000
 13  -1967.0862490257  -0.000000007021 0.00003971  0.00000086  0.0000178 0.0000
 14  -1967.0862490197   0.000000006087 0.00003594  0.00000084  0.0000068 0.0000
 15  -1967.0862490102   0.000000009415 0.00013690  0.00000152  0.0000015 0.0000
                            ***DIIS convergence achieved***

               *****************************************************
               *                     SUCCESS                       *
               *           SCF CONVERGED AFTER  16 CYCLES          *
               *****************************************************

Old exchange energy                            =    -22.290231769 Eh
New exchange energy                            =    -22.290232155 Eh
Exchange energy change after final integration =     -0.000000385 Eh
Total energy after final integration           =  -1967.086249403 Eh
Final COS-X integration done in                =     2.933 sec

----------------
TOTAL SCF ENERGY
----------------

Total Energy       :        -1967.08624940 Eh          -53527.13811 eV

Components:
Nuclear Repulsion  :          611.61915082 Eh           16643.00321 eV
Electronic Energy  :        -2578.70540022 Eh          -70170.14132 eV
One Electron Energy:        -3926.93849153 Eh         -106857.42888 eV
Two Electron Energy:         1348.23309131 Eh           36687.28756 eV
Max COSX asymmetry :            0.00000149 Eh               0.00004 eV
CPCM Dielectric    :           -0.09532108 Eh              -2.59382 eV

Virial components:
Potential Energy   :        -3930.21682034 Eh         -106946.63674 eV
Kinetic Energy     :         1963.13057094 Eh           53419.49863 eV
Virial Ratio       :            2.00201498


DFT components:
N(Alpha)           :       43.000019567609 electrons
N(Beta)            :       43.000019567609 electrons
N(Total)           :       86.000039135217 electrons
E(X)               :      -88.848946506667 Eh       
E(C)               :       -3.857226341568 Eh       
E(XC)              :      -92.706172848236 Eh       
DFET-embed. en.    :        0.000000000000 Eh       
CPCM Solvation Model Properties:
Surface-charge          :           -1.03138662
Charge-correction       :            0.00420950 Eh               0.11455 eV
Free-energy (cav+disp)  :  This term is not implemented in the current solvation scheme

---------------
SCF CONVERGENCE
---------------

  Last Energy change         ...   -7.3258e-09  Tolerance :   1.0000e-08
  Last MAX-Density change    ...    0.0000e+00  Tolerance :   1.0000e-07
  Last RMS-Density change    ...    0.0000e+00  Tolerance :   5.0000e-09
  Last DIIS Error            ...    3.7256e-07  Tolerance :   5.0000e-07

             **** THE GBW FILE WAS UPDATED (orca.gbw) ****
             **** DENSITY orca.scfp WAS UPDATED ****
             **** ENERGY FILE WAS UPDATED (orca.en.tmp) ****
             **** THE GBW FILE WAS UPDATED (orca.gbw) ****
             **** DENSITY orca.scfp WAS UPDATED ****
----------------
ORBITAL ENERGIES
----------------

  NO   OCC          E(Eh)            E(eV) 
   0   2.0000    -323.070509     -8791.1955 
   1   2.0000     -38.866430     -1057.6093 
   2   2.0000     -34.071297      -927.1271 
   3   2.0000     -34.070902      -927.1164 
   4   2.0000     -34.070326      -927.1007 
   5   2.0000     -14.395445      -391.7200 
   6   2.0000     -10.305228      -280.4195 
   7   2.0000     -10.224391      -278.2198 
   8   2.0000     -10.208882      -277.7978 
   9   2.0000     -10.207448      -277.7588 
  10   2.0000     -10.202848      -277.6336 
  11   2.0000     -10.202263      -277.6177 
  12   2.0000     -10.201300      -277.5915 
  13   2.0000      -4.356568      -118.5483 
  14   2.0000      -2.855344       -77.6979 
  15   2.0000      -2.851166       -77.5842 
  16   2.0000      -2.844033       -77.3901 
  17   2.0000      -0.985137       -26.8069 
  18   2.0000      -0.892264       -24.2797 
  19   2.0000      -0.803115       -21.8539 
  20   2.0000      -0.780105       -21.2277 
  21   2.0000      -0.714679       -19.4474 
  22   2.0000      -0.644581       -17.5399 
  23   2.0000      -0.628324       -17.0976 
  24   2.0000      -0.586282       -15.9535 
  25   2.0000      -0.560408       -15.2495 
  26   2.0000      -0.520076       -14.1520 
  27   2.0000      -0.491655       -13.3786 
  28   2.0000      -0.478082       -13.0093 
  29   2.0000      -0.471957       -12.8426 
  30   2.0000      -0.452402       -12.3105 
  31   2.0000      -0.446102       -12.1391 
  32   2.0000      -0.399046       -10.8586 
  33   2.0000      -0.393925       -10.7193 
  34   2.0000      -0.380131       -10.3439 
  35   2.0000      -0.373432       -10.1616 
  36   2.0000      -0.349624        -9.5138 
  37   2.0000      -0.339819        -9.2470 
  38   2.0000      -0.337223        -9.1763 
  39   2.0000      -0.329011        -8.9528 
  40   2.0000      -0.293631        -7.9901 
  41   2.0000      -0.289012        -7.8644 
  42   2.0000      -0.264926        -7.2090 
  43   0.0000      -0.116233        -3.1629 
  44   0.0000      -0.054035        -1.4704 
  45   0.0000      -0.044181        -1.2022 
  46   0.0000      -0.025914        -0.7052 
  47   0.0000       0.019601         0.5334 
  48   0.0000       0.023815         0.6480 
  49   0.0000       0.042289         1.1507 
  50   0.0000       0.047659         1.2969 
  51   0.0000       0.073150         1.9905 
  52   0.0000       0.077034         2.0962 
  53   0.0000       0.087442         2.3794 
  54   0.0000       0.095316         2.5937 
  55   0.0000       0.102598         2.7918 
  56   0.0000       0.104683         2.8486 
  57   0.0000       0.110594         3.0094 
  58   0.0000       0.119417         3.2495 
  59   0.0000       0.141163         3.8412 
  60   0.0000       0.151897         4.1333 
  61   0.0000       0.167080         4.5465 
  62   0.0000       0.175628         4.7791 
  63   0.0000       0.180199         4.9035 
  64   0.0000       0.183571         4.9952 
  65   0.0000       0.194310         5.2874 
  66   0.0000       0.204541         5.5659 
  67   0.0000       0.211476         5.7545 
  68   0.0000       0.215129         5.8540 
  69   0.0000       0.216588         5.8937 
  70   0.0000       0.232646         6.3306 
  71   0.0000       0.234027         6.3682 
  72   0.0000       0.249444         6.7877 
  73   0.0000       0.252888         6.8814 
  74   0.0000       0.266308         7.2466 
  75   0.0000       0.276426         7.5219 
  76   0.0000       0.290361         7.9011 
  77   0.0000       0.303931         8.2704 
  78   0.0000       0.307049         8.3552 
  79   0.0000       0.321613         8.7515 
  80   0.0000       0.336747         9.1634 
  81   0.0000       0.338933         9.2228 
  82   0.0000       0.349949         9.5226 
  83   0.0000       0.354801         9.6546 
  84   0.0000       0.360488         9.8094 
  85   0.0000       0.367731        10.0065 
  86   0.0000       0.387610        10.5474 
  87   0.0000       0.394191        10.7265 
  88   0.0000       0.400616        10.9013 
  89   0.0000       0.410963        11.1829 
  90   0.0000       0.419462        11.4141 
  91   0.0000       0.432861        11.7787 
  92   0.0000       0.447680        12.1820 
  93   0.0000       0.450038        12.2462 
  94   0.0000       0.454066        12.3558 
  95   0.0000       0.467792        12.7293 
  96   0.0000       0.473293        12.8790 
  97   0.0000       0.477278        12.9874 
  98   0.0000       0.478694        13.0259 
  99   0.0000       0.495210        13.4753 
 100   0.0000       0.504920        13.7396 
 101   0.0000       0.517224        14.0744 
 102   0.0000       0.536665        14.6034 
 103   0.0000       0.556256        15.1365 
 104   0.0000       0.567995        15.4559 
 105   0.0000       0.582748        15.8574 
 106   0.0000       0.607105        16.5202 
 107   0.0000       0.629991        17.1429 
 108   0.0000       0.639796        17.4097 
 109   0.0000       0.652457        17.7543 
 110   0.0000       0.665947        18.1213 
 111   0.0000       0.672286        18.2938 
 112   0.0000       0.698444        19.0056 
 113   0.0000       0.713978        19.4283 
 114   0.0000       0.728836        19.8326 
 115   0.0000       0.737865        20.0783 
 116   0.0000       0.763758        20.7829 
 117   0.0000       0.785313        21.3695 
 118   0.0000       0.802360        21.8333 
 119   0.0000       0.819165        22.2906 
 120   0.0000       0.829344        22.5676 
 121   0.0000       0.852672        23.2024 
 122   0.0000       0.860558        23.4170 
 123   0.0000       0.885005        24.0822 
 124   0.0000       0.892458        24.2850 
 125   0.0000       0.905315        24.6349 
 126   0.0000       0.925253        25.1774 
 127   0.0000       0.947103        25.7720 
 128   0.0000       0.969347        26.3773 
 129   0.0000       0.975939        26.5566 
 130   0.0000       0.988303        26.8931 
 131   0.0000       1.004856        27.3435 
 132   0.0000       1.016458        27.6592 
 133   0.0000       1.030581        28.0435 
 134   0.0000       1.063791        28.9472 
 135   0.0000       1.082056        29.4442 
 136   0.0000       1.119261        30.4566 
 137   0.0000       1.136779        30.9333 
 138   0.0000       1.155682        31.4477 
 139   0.0000       1.169791        31.8316 
 140   0.0000       1.183421        32.2025 
 141   0.0000       1.189620        32.3712 
 142   0.0000       1.208405        32.8824 
 143   0.0000       1.213935        33.0328 
 144   0.0000       1.221773        33.2461 
 145   0.0000       1.245285        33.8859 
 146   0.0000       1.265167        34.4270 
 147   0.0000       1.279927        34.8286 
 148   0.0000       1.313479        35.7416 
 149   0.0000       1.321153        35.9504 
 150   0.0000       1.343010        36.5452 
 151   0.0000       1.372037        37.3350 
 152   0.0000       1.393190        37.9106 
 153   0.0000       1.408853        38.3368 
 154   0.0000       1.426871        38.8271 
 155   0.0000       1.440445        39.1965 
 156   0.0000       1.450128        39.4600 
 157   0.0000       1.458676        39.6926 
 158   0.0000       1.468049        39.9477 
 159   0.0000       1.479224        40.2517 
 160   0.0000       1.522694        41.4346 
 161   0.0000       1.538283        41.8588 
 162   0.0000       1.550920        42.2027 
 163   0.0000       1.571953        42.7750 
 164   0.0000       1.592632        43.3377 
 165   0.0000       1.600672        43.5565 
 166   0.0000       1.620922        44.1075 
 167   0.0000       1.652715        44.9727 
 168   0.0000       1.655709        45.0541 
 169   0.0000       1.665735        45.3269 
 170   0.0000       1.671397        45.4810 
 171   0.0000       1.693056        46.0704 
 172   0.0000       1.695529        46.1377 
 173   0.0000       1.716447        46.7069 
 174   0.0000       1.738533        47.3079 
 175   0.0000       1.752692        47.6932 
 176   0.0000       1.766669        48.0735 
 177   0.0000       1.819080        49.4997 
 178   0.0000       1.866773        50.7975 
 179   0.0000       1.875167        51.0259 
 180   0.0000       1.881441        51.1966 
 181   0.0000       1.914733        52.1025 
 182   0.0000       1.926449        52.4213 
 183   0.0000       1.941087        52.8197 
 184   0.0000       1.957459        53.2652 
 185   0.0000       1.970895        53.6308 
 186   0.0000       1.992816        54.2273 
 187   0.0000       2.040048        55.5125 
 188   0.0000       2.054381        55.9025 
 189   0.0000       2.057612        55.9905 
 190   0.0000       2.088320        56.8261 
 191   0.0000       2.112957        57.4965 
 192   0.0000       2.125607        57.8407 
 193   0.0000       2.172275        59.1106 
 194   0.0000       2.175091        59.1872 
 195   0.0000       2.185551        59.4719 
 196   0.0000       2.202742        59.9397 
 197   0.0000       2.232545        60.7506 
 198   0.0000       2.260995        61.5248 
 199   0.0000       2.285497        62.1915 
 200   0.0000       2.329825        63.3978 
 201   0.0000       2.351163        63.9784 
 202   0.0000       2.362736        64.2933 
 203   0.0000       2.394581        65.1599 
 204   0.0000       2.406180        65.4755 
 205   0.0000       2.435871        66.2834 
 206   0.0000       2.446729        66.5789 
 207   0.0000       2.455149        66.8080 
 208   0.0000       2.508561        68.2614 
 209   0.0000       2.524985        68.7083 
 210   0.0000       2.539231        69.0960 
 211   0.0000       2.551323        69.4250 
 212   0.0000       2.571119        69.9637 
 213   0.0000       2.586586        70.3846 
 214   0.0000       2.588870        70.4467 
 215   0.0000       2.600679        70.7681 
 216   0.0000       2.629440        71.5507 
 217   0.0000       2.644945        71.9726 
 218   0.0000       2.657489        72.3140 
 219   0.0000       2.666272        72.5529 
 220   0.0000       2.677483        72.8580 
 221   0.0000       2.687078        73.1191 
 222   0.0000       2.709283        73.7233 
 223   0.0000       2.728061        74.2343 
 224   0.0000       2.739549        74.5469 
 225   0.0000       2.746800        74.7442 
 226   0.0000       2.755540        74.9821 
 227   0.0000       2.763003        75.1851 
 228   0.0000       2.801529        76.2335 
 229   0.0000       2.806043        76.3563 
 230   0.0000       2.819104        76.7117 
 231   0.0000       2.835915        77.1692 
 232   0.0000       2.842219        77.3407 
 233   0.0000       2.877719        78.3067 
 234   0.0000       2.894742        78.7699 
 235   0.0000       2.909653        79.1757 
 236   0.0000       2.940223        80.0075 
 237   0.0000       2.945919        80.1625 
 238   0.0000       2.983677        81.1900 
 239   0.0000       3.012646        81.9783 
 240   0.0000       3.019026        82.1519 
 241   0.0000       3.046999        82.9131 
 242   0.0000       3.072338        83.6026 
 243   0.0000       3.101903        84.4071 
 244   0.0000       3.112095        84.6844 
 245   0.0000       3.121176        84.9315 
 246   0.0000       3.130709        85.1909 
 247   0.0000       3.144083        85.5549 
 248   0.0000       3.155789        85.8734 
 249   0.0000       3.157808        85.9283 
 250   0.0000       3.177718        86.4701 
 251   0.0000       3.201192        87.1089 
 252   0.0000       3.222477        87.6881 
 253   0.0000       3.237078        88.0854 
 254   0.0000       3.257065        88.6292 
 255   0.0000       3.272693        89.0545 
 256   0.0000       3.292252        89.5867 
 257   0.0000       3.294104        89.6371 
 258   0.0000       3.321469        90.3818 
 259   0.0000       3.334855        90.7460 
 260   0.0000       3.338023        90.8322 
 261   0.0000       3.356682        91.3400 
 262   0.0000       3.362424        91.4962 
 263   0.0000       3.385976        92.1371 
 264   0.0000       3.403838        92.6231 
 265   0.0000       3.429956        93.3339 
 266   0.0000       3.443428        93.7004 
 267   0.0000       3.448943        93.8505 
 268   0.0000       3.487473        94.8990 
 269   0.0000       3.498825        95.2079 
 270   0.0000       3.508931        95.4829 
 271   0.0000       3.535015        96.1927 
 272   0.0000       3.561165        96.9042 
 273   0.0000       3.603044        98.0438 
 274   0.0000       3.629963        98.7763 
 275   0.0000       3.646902        99.2373 
 276   0.0000       3.655475        99.4705 
 277   0.0000       3.664149        99.7066 
 278   0.0000       3.699716       100.6744 
 279   0.0000       3.730589       101.5145 
 280   0.0000       3.753102       102.1271 
 281   0.0000       3.760216       102.3207 
 282   0.0000       3.779437       102.8437 
 283   0.0000       3.814258       103.7912 
 284   0.0000       3.828455       104.1776 
 285   0.0000       3.865613       105.1887 
 286   0.0000       3.893129       105.9374 
 287   0.0000       3.919286       106.6492 
 288   0.0000       3.939407       107.1967 
 289   0.0000       3.993509       108.6689 
 290   0.0000       4.028828       109.6300 
 291   0.0000       4.078166       110.9725 
 292   0.0000       4.101676       111.6123 
 293   0.0000       4.147003       112.8457 
 294   0.0000       4.150282       112.9349 
 295   0.0000       4.178143       113.6930 
 296   0.0000       4.186858       113.9302 
 297   0.0000       4.199232       114.2669 
 298   0.0000       4.203432       114.3812 
 299   0.0000       4.221675       114.8776 
 300   0.0000       4.241847       115.4265 
 301   0.0000       4.281613       116.5086 
 302   0.0000       4.305695       117.1639 
 303   0.0000       4.330946       117.8510 
 304   0.0000       4.409219       119.9810 
 305   0.0000       4.430345       120.5558 
 306   0.0000       4.497734       122.3896 
 307   0.0000       4.547538       123.7448 
 308   0.0000       4.614367       125.5633 
 309   0.0000       4.644164       126.3741 
 310   0.0000       4.653071       126.6165 
 311   0.0000       4.680071       127.3512 
 312   0.0000       4.704522       128.0165 
 313   0.0000       4.722115       128.4953 
 314   0.0000       4.817750       131.0976 
 315   0.0000       4.845748       131.8595 
 316   0.0000       4.875666       132.6736 
 317   0.0000       4.886528       132.9692 
 318   0.0000       4.971901       135.2923 
 319   0.0000       5.046302       137.3169 
 320   0.0000       5.056307       137.5891 
 321   0.0000       5.119291       139.3030 
 322   0.0000       5.171801       140.7319 
 323   0.0000       5.180647       140.9726 
 324   0.0000       5.230641       142.3330 
 325   0.0000       5.276644       143.5848 
 326   0.0000       5.328530       144.9967 
 327   0.0000       5.383272       146.4863 
 328   0.0000       5.420131       147.4892 
 329   0.0000       5.437337       147.9575 
 330   0.0000       5.655351       153.8899 
 331   0.0000       5.724291       155.7659 
 332   0.0000       5.734364       156.0400 
 333   0.0000       5.748247       156.4178 
 334   0.0000       5.763021       156.8198 
 335   0.0000       5.780455       157.2942 
 336   0.0000       5.820148       158.3743 
 337   0.0000       5.870094       159.7334 
 338   0.0000       5.936634       161.5440 
 339   0.0000      21.979150       598.0831 
 340   0.0000      22.468810       611.4074 
 341   0.0000      22.572228       614.2215 
 342   0.0000      22.577923       614.3765 
 343   0.0000      22.687511       617.3585 
 344   0.0000      22.766124       619.4977 
 345   0.0000      23.175463       630.6364 
 346   0.0000      31.883692       867.5994 

                    ********************************
                    * MULLIKEN POPULATION ANALYSIS *
                    ********************************

-----------------------
MULLIKEN ATOMIC CHARGES
-----------------------
   0 C :   -0.113140
   1 C :   -0.204294
   2 C :    0.091180
   3 C :   -0.208850
   4 C :   -0.139634
   5 C :   -0.123560
   6 H :    0.149699
   7 H :    0.151060
   8 H :    0.149007
   9 H :    0.152176
  10 H :    0.148705
  11 C :    0.184205
  12 N :   -0.438375
  13 H :    0.198554
  14 H :   -0.096659
  15 H :    0.296028
  16 H :    0.292293
  17 Cu:    0.511604
Sum of atomic charges:    1.0000000

--------------------------------
MULLIKEN REDUCED ORBITAL CHARGES
--------------------------------
  0 C s       :     3.207585  s :     3.207585
      pz      :     0.943254  p :     2.817770
      px      :     0.954445
      py      :     0.920070
      dz2     :     0.012669  d :     0.080494
      dxz     :     0.016327
      dyz     :     0.011843
      dx2y2   :     0.021857
      dxy     :     0.017799
      f0      :     0.000789  f :     0.007290
      f+1     :     0.000364
      f-1     :     0.001401
      f+2     :     0.000906
      f-2     :     0.001449
      f+3     :     0.001566
      f-3     :     0.000816
  1 C s       :     3.264852  s :     3.264852
      pz      :     0.977239  p :     2.851464
      px      :     0.894164
      py      :     0.980061
      dz2     :     0.007876  d :     0.080589
      dxz     :     0.019946
      dyz     :     0.011567
      dx2y2   :     0.023247
      dxy     :     0.017954
      f0      :     0.000594  f :     0.007389
      f+1     :     0.001211
      f-1     :     0.000642
      f+2     :     0.001148
      f-2     :     0.001146
      f+3     :     0.001572
      f-3     :     0.001076
  2 C s       :     3.232662  s :     3.232662
      pz      :     0.962469  p :     2.542623
      px      :     0.752628
      py      :     0.827526
      dz2     :     0.022795  d :     0.123432
      dxz     :     0.021869
      dyz     :     0.015609
      dx2y2   :     0.034511
      dxy     :     0.028649
      f0      :     0.000783  f :     0.010103
      f+1     :     0.001328
      f-1     :     0.001487
      f+2     :     0.001136
      f-2     :     0.001868
      f+3     :     0.001891
      f-3     :     0.001609
  3 C s       :     3.265094  s :     3.265094
      pz      :     0.966751  p :     2.854145
      px      :     0.989972
      py      :     0.897421
      dz2     :     0.013386  d :     0.082217
      dxz     :     0.016780
      dyz     :     0.012240
      dx2y2   :     0.024499
      dxy     :     0.015313
      f0      :     0.000821  f :     0.007393
      f+1     :     0.000341
      f-1     :     0.001411
      f+2     :     0.000921
      f-2     :     0.001484
      f+3     :     0.001574
      f-3     :     0.000841
  4 C s       :     3.225942  s :     3.225942
      pz      :     0.945705  p :     2.825049
      px      :     0.900785
      py      :     0.978559
      dz2     :     0.008680  d :     0.081299
      dxz     :     0.019970
      dyz     :     0.010928
      dx2y2   :     0.023824
      dxy     :     0.017897
      f0      :     0.000612  f :     0.007343
      f+1     :     0.001160
      f-1     :     0.000658
      f+2     :     0.001107
      f-2     :     0.001212
      f+3     :     0.001586
      f-3     :     0.001008
  5 C s       :     3.221830  s :     3.221830
      pz      :     0.922877  p :     2.813896
      px      :     0.960322
      py      :     0.930697
      dz2     :     0.017154  d :     0.080622
      dxz     :     0.014692
      dyz     :     0.010353
      dx2y2   :     0.014861
      dxy     :     0.023562
      f0      :     0.000438  f :     0.007211
      f+1     :     0.001039
      f-1     :     0.001351
      f+2     :     0.000947
      f-2     :     0.001242
      f+3     :     0.000993
      f-3     :     0.001200
  6 H s       :     0.827981  s :     0.827981
      pz      :     0.006135  p :     0.022320
      px      :     0.011661
      py      :     0.004524
  7 H s       :     0.826706  s :     0.826706
      pz      :     0.004450  p :     0.022234
      px      :     0.010723
      py      :     0.007061
  8 H s       :     0.828648  s :     0.828648
      pz      :     0.008069  p :     0.022345
      px      :     0.003643
      py      :     0.010633
  9 H s       :     0.825486  s :     0.825486
      pz      :     0.006152  p :     0.022338
      px      :     0.011263
      py      :     0.004922
 10 H s       :     0.828992  s :     0.828992
      pz      :     0.007991  p :     0.022303
      px      :     0.003585
      py      :     0.010727
 11 C s       :     3.042680  s :     3.042680
      pz      :     0.834521  p :     2.610821
      px      :     0.840098
      py      :     0.936202
      dz2     :     0.026716  d :     0.151708
      dxz     :     0.034908
      dyz     :     0.029369
      dx2y2   :     0.034753
      dxy     :     0.025960
      f0      :     0.001557  f :     0.010587
      f+1     :     0.001870
      f-1     :     0.000683
      f+2     :     0.001909
      f-2     :     0.001893
      f+3     :     0.001541
      f-3     :     0.001133
 12 N s       :     3.492295  s :     3.492295
      pz      :     1.156350  p :     3.908494
      px      :     1.450370
      py      :     1.301773
      dz2     :     0.008374  d :     0.034687
      dxz     :     0.005903
      dyz     :     0.007226
      dx2y2   :     0.006920
      dxy     :     0.006263
      f0      :     0.000281  f :     0.002900
      f+1     :     0.000480
      f-1     :     0.000576
      f+2     :     0.000415
      f-2     :     0.000441
      f+3     :     0.000427
      f-3     :     0.000279
 13 H s       :     0.777917  s :     0.777917
      pz      :     0.007062  p :     0.023529
      px      :     0.004874
      py      :     0.011593
 14 H s       :     1.082398  s :     1.082398
      pz      :     0.006072  p :     0.014261
      px      :     0.005445
      py      :     0.002744
 15 H s       :     0.666604  s :     0.666604
      pz      :     0.006574  p :     0.037368
      px      :     0.011266
      py      :     0.019528
 16 H s       :     0.669661  s :     0.669661
      pz      :     0.018259  p :     0.038046
      px      :     0.009361
      py      :     0.010426
 17 Cus       :     6.456424  s :     6.456424
      pz      :     4.115139  p :    12.277498
      px      :     4.137323
      py      :     4.025037
      dz2     :     1.933490  d :     9.754378
      dxz     :     1.903824
      dyz     :     1.992315
      dx2y2   :     1.971856
      dxy     :     1.952894
      f0      :     0.000009  f :     0.000095
      f+1     :     0.000007
      f-1     :     0.000013
      f+2     :     0.000018
      f-2     :     0.000017
      f+3     :     0.000019
      f-3     :     0.000013


                     *******************************
                     * LOEWDIN POPULATION ANALYSIS *
                     *******************************

----------------------
LOEWDIN ATOMIC CHARGES
----------------------
   0 C :   -0.123308
   1 C :   -0.086434
   2 C :   -0.153078
   3 C :   -0.094303
   4 C :   -0.123815
   5 C :   -0.116481
   6 H :    0.154383
   7 H :    0.153840
   8 H :    0.158840
   9 H :    0.158773
  10 H :    0.154114
  11 C :   -0.182326
  12 N :    0.048698
  13 H :    0.171187
  14 H :    0.037679
  15 H :    0.204650
  16 H :    0.198034
  17 Cu:    0.439549

-------------------------------
LOEWDIN REDUCED ORBITAL CHARGES
-------------------------------
  0 C s       :     2.765571  s :     2.765571
      pz      :     0.934538  p :     2.933685
      px      :     1.002704
      py      :     0.996443
      dz2     :     0.046876  d :     0.380749
      dxz     :     0.076145
      dyz     :     0.059103
      dx2y2   :     0.104371
      dxy     :     0.094254
      f0      :     0.005149  f :     0.043302
      f+1     :     0.003199
      f-1     :     0.005192
      f+2     :     0.005015
      f-2     :     0.008504
      f+3     :     0.010094
      f-3     :     0.006149
  1 C s       :     2.757247  s :     2.757247
      pz      :     0.915688  p :     2.905278
      px      :     1.034040
      py      :     0.955550
      dz2     :     0.034834  d :     0.380808
      dxz     :     0.082415
      dyz     :     0.054970
      dx2y2   :     0.116721
      dxy     :     0.091867
      f0      :     0.003859  f :     0.043101
      f+1     :     0.007648
      f-1     :     0.001623
      f+2     :     0.004654
      f-2     :     0.007676
      f+3     :     0.010265
      f-3     :     0.007377
  2 C s       :     2.702095  s :     2.702095
      pz      :     0.931190  p :     2.875191
      px      :     0.976090
      py      :     0.967911
      dz2     :     0.083808  d :     0.517956
      dxz     :     0.099377
      dyz     :     0.070698
      dx2y2   :     0.118134
      dxy     :     0.145939
      f0      :     0.005217  f :     0.057837
      f+1     :     0.007125
      f-1     :     0.005346
      f+2     :     0.006659
      f-2     :     0.011486
      f+3     :     0.012603
      f-3     :     0.009401
  3 C s       :     2.755054  s :     2.755054
      pz      :     0.929019  p :     2.916290
      px      :     1.003698
      py      :     0.983573
      dz2     :     0.048499  d :     0.379751
      dxz     :     0.073644
      dyz     :     0.059496
      dx2y2   :     0.108440
      dxy     :     0.089671
      f0      :     0.005296  f :     0.043208
      f+1     :     0.003121
      f-1     :     0.005323
      f+2     :     0.004919
      f-2     :     0.008246
      f+3     :     0.010051
      f-3     :     0.006252
  4 C s       :     2.765561  s :     2.765561
      pz      :     0.920229  p :     2.932410
      px      :     1.056182
      py      :     0.955998
      dz2     :     0.035048  d :     0.382445
      dxz     :     0.081930
      dyz     :     0.053927
      dx2y2   :     0.119879
      dxy     :     0.091662
      f0      :     0.003883  f :     0.043400
      f+1     :     0.007483
      f-1     :     0.001637
      f+2     :     0.004651
      f-2     :     0.007893
      f+3     :     0.010610
      f-3     :     0.007241
  5 C s       :     2.767906  s :     2.767906
      pz      :     0.937386  p :     2.924035
      px      :     1.009850
      py      :     0.976800
      dz2     :     0.067253  d :     0.381419
      dxz     :     0.068187
      dyz     :     0.053709
      dx2y2   :     0.076113
      dxy     :     0.116156
      f0      :     0.003796  f :     0.043121
      f+1     :     0.005545
      f-1     :     0.004965
      f+2     :     0.006337
      f-2     :     0.007852
      f+3     :     0.007722
      f-3     :     0.006904
  6 H s       :     0.786314  s :     0.786314
      pz      :     0.016652  p :     0.059303
      px      :     0.029707
      py      :     0.012944
  7 H s       :     0.786845  s :     0.786845
      pz      :     0.012653  p :     0.059315
      px      :     0.027679
      py      :     0.018983
  8 H s       :     0.781532  s :     0.781532
      pz      :     0.021409  p :     0.059628
      px      :     0.010704
      py      :     0.027515
  9 H s       :     0.781253  s :     0.781253
      pz      :     0.016907  p :     0.059974
      px      :     0.029177
      py      :     0.013890
 10 H s       :     0.786599  s :     0.786599
      pz      :     0.021020  p :     0.059286
      px      :     0.010799
      py      :     0.027468
 11 C s       :     2.784750  s :     2.784750
      pz      :     0.896146  p :     2.820029
      px      :     0.929833
      py      :     0.994051
      dz2     :     0.094461  d :     0.517166
      dxz     :     0.124229
      dyz     :     0.103475
      dx2y2   :     0.109409
      dxy     :     0.085593
      f0      :     0.009976  f :     0.060381
      f+1     :     0.012256
      f-1     :     0.003791
      f+2     :     0.009199
      f-2     :     0.010216
      f+3     :     0.008360
      f-3     :     0.006583
 12 N s       :     2.982430  s :     2.982430
      pz      :     1.188422  p :     3.805321
      px      :     1.388382
      py      :     1.228517
      dz2     :     0.042697  d :     0.152811
      dxz     :     0.030911
      dyz     :     0.036917
      dx2y2   :     0.022534
      dxy     :     0.019752
      f0      :     0.001223  f :     0.010739
      f+1     :     0.002042
      f-1     :     0.001926
      f+2     :     0.001355
      f-2     :     0.001990
      f+3     :     0.001149
      f-3     :     0.001054
 13 H s       :     0.766375  s :     0.766375
      pz      :     0.019107  p :     0.062438
      px      :     0.011235
      py      :     0.032097
 14 H s       :     0.929106  s :     0.929106
      pz      :     0.013382  p :     0.033215
      px      :     0.013105
      py      :     0.006728
 15 H s       :     0.686356  s :     0.686356
      pz      :     0.018307  p :     0.108995
      px      :     0.032108
      py      :     0.058580
 16 H s       :     0.691896  s :     0.691896
      pz      :     0.049961  p :     0.110070
      px      :     0.027673
      py      :     0.032437
 17 Cus       :     6.285103  s :     6.285103
      pz      :     4.206132  p :    12.339837
      px      :     4.100235
      py      :     4.033470
      dz2     :     1.969859  d :     9.935374
      dxz     :     1.953971
      dyz     :     2.025907
      dx2y2   :     1.997477
      dxy     :     1.988160
      f0      :     0.000014  f :     0.000137
      f+1     :     0.000010
      f-1     :     0.000019
      f+2     :     0.000028
      f-2     :     0.000022
      f+3     :     0.000026
      f-3     :     0.000019


                      *****************************
                      * MAYER POPULATION ANALYSIS *
                      *****************************

  NA   - Mulliken gross atomic population
  ZA   - Total nuclear charge
  QA   - Mulliken gross atomic charge
  VA   - Mayer's total valence
  BVA  - Mayer's bonded valence
  FA   - Mayer's free valence

  ATOM       NA         ZA         QA         VA         BVA        FA
  0 C      6.1131     6.0000    -0.1131     3.8716     3.8716    -0.0000
  1 C      6.2043     6.0000    -0.2043     3.9614     3.9614    -0.0000
  2 C      5.9088     6.0000     0.0912     3.6981     3.6981    -0.0000
  3 C      6.2088     6.0000    -0.2088     3.9144     3.9144    -0.0000
  4 C      6.1396     6.0000    -0.1396     3.9168     3.9168    -0.0000
  5 C      6.1236     6.0000    -0.1236     3.8898     3.8898    -0.0000
  6 H      0.8503     1.0000     0.1497     0.9640     0.9640    -0.0000
  7 H      0.8489     1.0000     0.1511     0.9630     0.9630     0.0000
  8 H      0.8510     1.0000     0.1490     0.9680     0.9680     0.0000
  9 H      0.8478     1.0000     0.1522     0.9737     0.9737     0.0000
 10 H      0.8513     1.0000     0.1487     0.9659     0.9659    -0.0000
 11 C      5.8158     6.0000     0.1842     3.7509     3.7509     0.0000
 12 N      7.4384     7.0000    -0.4384     3.2113     3.2113     0.0000
 13 H      0.8014     1.0000     0.1986     0.9662     0.9662     0.0000
 14 H      1.0967     1.0000    -0.0967     1.0131     1.0131    -0.0000
 15 H      0.7040     1.0000     0.2960     0.9223     0.9223     0.0000
 16 H      0.7077     1.0000     0.2923     0.9278     0.9278     0.0000
 17 Cu    28.4884    29.0000     0.5116     1.5257     1.5257    -0.0000

  Mayer bond orders larger than 0.100000
B(  0-C ,  1-C ) :   1.4231 B(  0-C ,  5-C ) :   1.3855 B(  0-C ,  6-H ) :   0.9710 
B(  1-C ,  2-C ) :   1.3515 B(  1-C ,  8-H ) :   0.9674 B(  2-C ,  3-C ) :   1.2933 
B(  2-C , 11-C ) :   1.0256 B(  3-C ,  4-C ) :   1.4491 B(  3-C ,  9-H ) :   0.9656 
B(  4-C ,  5-C ) :   1.3794 B(  4-C , 10-H ) :   0.9688 B(  5-C ,  7-H ) :   0.9654 
B( 11-C , 12-N ) :   0.9998 B( 11-C , 13-H ) :   0.9777 B( 11-C , 14-H ) :   0.2442 
B( 11-C , 17-Cu) :   0.4706 B( 12-N , 15-H ) :   0.8962 B( 12-N , 16-H ) :   0.8965 
B( 12-N , 17-Cu) :   0.2903 B( 14-H , 17-Cu) :   0.6394 

-------
TIMINGS
-------

Total SCF time: 0 days 0 hours 6 min 29 sec 

Total time                  ....     389.087 sec
Sum of individual times     ....     349.875 sec  ( 89.9%)

Fock matrix formation       ....     159.346 sec  ( 41.0%)
  Split-RI-J                ....      47.199 sec  ( 29.6% of F)
  Chain of spheres X        ....      22.845 sec  ( 14.3% of F)
  XC integration            ....      15.853 sec  (  9.9% of F)
    Basis function eval.    ....       0.844 sec  (  5.3% of XC)
    Density eval.           ....       0.875 sec  (  5.5% of XC)
    XC-Functional eval.     ....       0.162 sec  (  1.0% of XC)
    XC-Potential eval.      ....       0.831 sec  (  5.2% of XC)
Diagonalization             ....      61.528 sec  ( 15.8%)
Density matrix formation    ....       2.703 sec  (  0.7%)
Population analysis         ....       4.085 sec  (  1.1%)
Initial guess               ....       6.156 sec  (  1.6%)
Orbital Transformation      ....       0.000 sec  (  0.0%)
Orbital Orthonormalization  ....       0.000 sec  (  0.0%)
DIIS solution               ....      99.938 sec  ( 25.7%)
Grid generation             ....      16.118 sec  (  4.1%)

Maximum memory used throughout the entire SCF-calculation: 83.8 MB


[...]
      8       0.158141   0.015113   0.040105   0.005901   0.001397  -0.000887
      9      -0.022517  -0.005468   0.193177   0.001206  -0.069688   0.010240
     10       0.140234   0.016909   0.217298   0.003926   0.022477  -0.002606
     11      -0.107835  -0.012381  -0.104136  -0.002376  -0.033606   0.004454
     12       0.147585   0.029989  -0.243862  -0.001958   0.003425  -0.000304
     13      -0.071424  -0.008660  -0.113537  -0.001054  -0.021121  -0.004500
     14       0.092284   0.014499   0.016061   0.000114   0.016223   0.003188
     15      -0.166225  -0.028135   0.098137   0.000519   0.007672   0.015308
     16       0.183598   0.021763   0.085631  -0.000404   0.005187   0.009969
     17      -0.180798  -0.024025  -0.036211   0.000368  -0.001686  -0.003062
     18       0.191369   0.018571   0.070702   0.000799   0.061068   0.391156
     19       0.081957  -0.008879   0.257609   0.001839  -0.017904  -0.115439
     20      -0.004307   0.011940  -0.169710   0.000177   0.029942   0.192181
     21       0.221207   0.028859   0.140629   0.000297  -0.092569  -0.179426
     22      -0.254828  -0.044391   0.060762  -0.000100  -0.061867  -0.120380
     23       0.249686   0.041009  -0.004726   0.000203   0.019899   0.038513
     24       0.242560   0.049469  -0.375156  -0.003314  -0.003774  -0.044946
     25       0.126395   0.013563  -0.001989  -0.001582   0.042810   0.674074
     26      -0.024417   0.003664  -0.102032  -0.002631  -0.032745  -0.508709
     27      -0.200874  -0.046621  -0.142908  -0.003012   0.806794  -0.115584
     28      -0.157987  -0.062190  -0.386006  -0.000867  -0.254615   0.035595
     29       0.053513   0.012597   0.215417   0.001682   0.385429  -0.054725
     30      -0.161846  -0.038233   0.300174  -0.000792  -0.020450  -0.002974
     31      -0.138337  -0.022352  -0.027331  -0.000672   0.262315   0.050705
     32       0.057591   0.007537   0.101735   0.000428  -0.195746  -0.037634
     33      -0.032679   0.013573   0.016732  -0.013463  -0.000582  -0.001042
     34       0.013314  -0.002832   0.021167   0.002431   0.001024   0.004744
     35      -0.025274  -0.002602  -0.001107  -0.000222  -0.000842  -0.003005
     36       0.019216  -0.041064  -0.001264  -0.001035   0.000097   0.000048
     37       0.009641  -0.022557  -0.007621  -0.002476  -0.000244   0.000030
     38       0.040697  -0.070631  -0.007744  -0.008981   0.000242   0.000060
     39       0.184236  -0.006030  -0.016619   0.016534   0.003514   0.014713
     40       0.087612  -0.002948  -0.009000   0.038321  -0.008277  -0.054633
     41       0.014201   0.004985  -0.037993   0.032683   0.005418   0.035349
     42      -0.043987   0.019514   0.003012   0.787802   0.000763   0.000944
     43       0.002507   0.003128  -0.002977  -0.024281  -0.000155  -0.000645
     44      -0.029510   0.026921  -0.043867   0.610247  -0.000162   0.000146
     45      -0.060238   0.098852  -0.004887   0.012333   0.000271   0.000446
     46       0.081564  -0.157399  -0.013593  -0.008323  -0.000842   0.001008
     47      -0.344218   0.667299   0.074839  -0.032279   0.001245  -0.000070
     48      -0.155219   0.329537   0.055423   0.005439   0.002282  -0.000325
     49      -0.251293   0.522942   0.087876  -0.029595   0.003134  -0.000087
     50      -0.149111   0.328357   0.064918  -0.028900  -0.000803  -0.000513
     51       0.000527  -0.000469   0.000797  -0.010381   0.000017  -0.000004
     52      -0.000051  -0.000059  -0.000172   0.000512   0.000012  -0.000001
     53       0.000409  -0.000393   0.000125  -0.007926  -0.000021  -0.000005
                 48         49         50         51         52         53    
      0      -0.021792   0.049668  -0.002028   0.042285  -0.000020  -0.000017
      1       0.003923  -0.013237   0.000260  -0.013640  -0.000062  -0.000039
      2      -0.008851   0.023345  -0.000831   0.021640   0.000054   0.000027
      3      -0.001633  -0.000518  -0.000615  -0.000860   0.000136   0.000086
      4       0.027903  -0.019814   0.006814  -0.013985  -0.000049   0.000017
      5      -0.021036   0.014479  -0.005254   0.010071   0.000059  -0.000040
      6       0.001357  -0.001307  -0.000956  -0.000791  -0.000467   0.000154
      7       0.000726   0.001001  -0.000811  -0.000405  -0.000344  -0.000054
      8      -0.000138  -0.001108   0.000440   0.000055  -0.000330   0.000103
      9       0.018656   0.016684  -0.001398  -0.010920   0.000153   0.000094
     10      -0.005359  -0.003364  -0.000332   0.001935   0.000154   0.000139
     11       0.008540   0.006630  -0.000111  -0.004166  -0.000053  -0.000027
     12      -0.000152   0.002581  -0.000570  -0.004048  -0.000017   0.000022
     13      -0.030300  -0.047761   0.005536   0.034764  -0.000008  -0.000040
     14       0.021931   0.035343  -0.004157  -0.026334   0.000042   0.000023
     15       0.050028  -0.007026   0.004884   0.047157   0.000001  -0.000018
     16       0.033954  -0.001055   0.002818   0.031956   0.000022   0.000010
     17      -0.011002  -0.001181  -0.000719  -0.010362  -0.000022  -0.000026
     18       0.240283  -0.558078   0.023218  -0.473920  -0.000325   0.000114
     19      -0.067347   0.161065  -0.005976   0.139618   0.000053   0.000057
     20       0.115293  -0.271364   0.010822  -0.232554  -0.000077   0.000149
     21      -0.585494   0.059204  -0.052769  -0.522634  -0.000171   0.000080
     22      -0.393901   0.035509  -0.035075  -0.351649  -0.000166   0.000052
     23       0.126307  -0.009527   0.011215   0.112796   0.000071   0.000071
     24       0.020464  -0.011730   0.006410  -0.007428   0.000124   0.000018
     25      -0.315436   0.214355  -0.079719   0.146349   0.000188  -0.000125
     26       0.238050  -0.161071   0.061299  -0.109994  -0.000310   0.000105
     27      -0.204294  -0.171260   0.010197   0.107219  -0.002467  -0.001760
     28       0.063877   0.051509  -0.003120  -0.031799  -0.001552  -0.001164
     29      -0.097165  -0.080160   0.004602   0.049884  -0.001835  -0.001192
     30      -0.021827  -0.037035   0.004590   0.029243  -0.000027  -0.000003
     31       0.347660   0.540357  -0.061934  -0.386446  -0.000162   0.000067
     32      -0.258027  -0.401897   0.046301   0.288150   0.000041  -0.000092
     33       0.001086  -0.001478  -0.014867   0.000520  -0.001061   0.000600
     34      -0.004179   0.007442   0.071104  -0.003457   0.000709  -0.000565
     35       0.002701  -0.004714  -0.045776   0.002292   0.000684   0.000543
     36      -0.000062  -0.000007  -0.000061   0.000057   0.010877  -0.024822
     37       0.000099  -0.000095  -0.001639   0.000060   0.020217  -0.073200
     38      -0.000139   0.000137   0.002004  -0.000107   0.049111   0.036383
     39      -0.012447   0.019947   0.185716  -0.008175  -0.002954  -0.005510
     40       0.047236  -0.086869  -0.816976   0.040248  -0.000719   0.012557
     41      -0.030328   0.055237   0.518705  -0.025450  -0.004701  -0.008006
     42      -0.001243   0.000724   0.004555   0.000538  -0.000563  -0.000888
     43       0.000517  -0.000935  -0.008071   0.000248  -0.003850  -0.001033
     44       0.000160   0.000490   0.004896  -0.000684  -0.007346   0.000506
     45      -0.000405   0.000233   0.000587   0.000338  -0.237351   0.234536
     46      -0.000482   0.001363   0.009621  -0.000128  -0.650855   0.668579
     47      -0.000289  -0.000260  -0.001591   0.000259  -0.072954   0.088857
     48      -0.000620   0.000158   0.006178  -0.000337   0.106497   0.107876
     49      -0.001066   0.000179   0.006902  -0.000259   0.370239   0.344842
     50       0.000791  -0.000392  -0.006995   0.000143  -0.602708  -0.593285
     51      -0.000002  -0.000006  -0.000040   0.000007   0.000021  -0.000008
     52      -0.000003  -0.000004  -0.000005   0.000002   0.000014  -0.000005
     53       0.000012  -0.000005  -0.000079  -0.000000   0.000035   0.000002


-----------
IR SPECTRUM
-----------

 Mode   freq       eps      Int      T**2         TX        TY        TZ
       cm**-1   L/(mol*cm) km/mol    a.u.
----------------------------------------------------------------------------
  7:     49.91   0.000332    1.68  0.002076  (-0.025979  0.036430  0.008608)
  8:     82.22   0.000415    2.10  0.001574  (-0.005301  0.035007  0.017895)
  9:    173.50   0.001521    7.69  0.002735  (-0.025149 -0.044618  0.010585)
 10:    227.95   0.002987   15.09  0.004089  (-0.020388 -0.008749  0.059972)
 11:    261.81   0.000539    2.72  0.000642  (-0.023868  0.003292  0.007839)
 12:    358.33   0.008549   43.20  0.007445  ( 0.034973  0.013667 -0.077687)
 13:    410.98   0.001500    7.58  0.001139  (-0.027039 -0.009611  0.017757)
 14:    424.28   0.017783   89.87  0.013080  ( 0.075266  0.031897 -0.079983)
 15:    488.31   0.007584   38.33  0.004847  (-0.052540  0.007620  0.045034)
 16:    526.93   0.007919   40.02  0.004690  (-0.021653 -0.029299  0.057989)
 17:    582.32   0.005721   28.91  0.003066  ( 0.008950 -0.036554 -0.040615)
 18:    632.43   0.020572  103.96  0.010151  (-0.094344 -0.029345 -0.019724)
 19:    634.34   0.018574   93.87  0.009138  (-0.091702 -0.017601 -0.020460)
 20:    691.62   0.042209  213.31  0.019045  (-0.128789  0.044879  0.021073)
 21:    709.44   0.024734  125.00  0.010880  ( 0.038211 -0.067350 -0.069885)
 22:    791.66   0.002327   11.76  0.000917  ( 0.011073  0.009771  0.026442)
 23:    809.30   0.003889   19.65  0.001499  (-0.025928  0.000634  0.028754)
 24:    855.97   0.000056    0.28  0.000020  ( 0.003873  0.001286  0.001932)
 25:    945.21   0.000367    1.86  0.000121  ( 0.001259 -0.003202 -0.010459)
 26:    989.13   0.000051    0.26  0.000016  (-0.003361  0.000606 -0.002080)
 27:   1016.46   0.000022    0.11  0.000007  ( 0.002311  0.000858  0.000732)
 28:   1021.89   0.000383    1.94  0.000117  ( 0.009956  0.000784 -0.004153)
 29:   1049.78   0.001813    9.16  0.000539  (-0.014147 -0.016387 -0.008379)
 30:   1094.43   0.006734   34.03  0.001920  (-0.005311 -0.035061 -0.025745)
 31:   1105.44   0.007242   36.60  0.002044  ( 0.013811  0.004636  0.042803)
 32:   1140.24   0.005691   28.76  0.001558  (-0.024489  0.016286  0.026317)
 33:   1182.51   0.002123   10.73  0.000560  (-0.000733  0.003928  0.023331)
 34:   1183.23   0.001400    7.07  0.000369  ( 0.005599 -0.003681 -0.018008)
 35:   1208.66   0.000770    3.89  0.000199  ( 0.011562  0.007495  0.003012)
 36:   1246.13   0.017681   89.35  0.004428  ( 0.054376  0.033419  0.018820)
 37:   1336.77   0.002028   10.25  0.000474  ( 0.020858  0.006085  0.001193)
 38:   1369.03   0.001169    5.91  0.000266  ( 0.005981  0.014987 -0.002463)
 39:   1435.39   0.011321   57.21  0.002461  (-0.039932 -0.029386 -0.001804)
 40:   1493.01   0.004330   21.88  0.000905  ( 0.023980 -0.011935  0.013697)
 41:   1533.74   0.000272    1.37  0.000055  (-0.001819 -0.004798  0.005377)
 42:   1622.65   0.001279    6.46  0.000246  (-0.011572 -0.007719 -0.007241)
 43:   1623.55   0.017248   87.16  0.003315  ( 0.030112  0.014030  0.047028)
 44:   1639.65   0.003452   17.44  0.000657  ( 0.022486  0.012226  0.001355)
 45:   1778.18   0.007923   40.04  0.001390  (-0.023195 -0.018158 -0.022862)
 46:   3167.30   0.001130    5.71  0.000111  (-0.010127 -0.002362 -0.001781)
 47:   3174.81   0.000359    1.81  0.000035  (-0.001023 -0.005066  0.002925)
 48:   3183.83   0.000299    1.51  0.000029  ( 0.003773  0.003857  0.000388)
 49:   3192.85   0.002688   13.58  0.000263  ( 0.008214 -0.010579  0.009129)
 50:   3196.63   0.000386    1.95  0.000038  ( 0.002739 -0.004009 -0.003756)
 51:   3201.45   0.001660    8.39  0.000162  ( 0.011120  0.005610 -0.002585)
 52:   3527.56   0.025922  131.00  0.002293  (-0.007635 -0.022924 -0.041344)
 53:   3628.36   0.022680  114.61  0.001951  ( 0.013983  0.038949 -0.015429)

* The epsilon (eps) is given for a Dirac delta lineshape.
** The dipole moment derivative (T) already includes vibrational overlap.

The first frequency considered to be a vibration is 7
The total number of vibrations considered is 47


--------------------------
THERMOCHEMISTRY AT 298.15K
--------------------------

Temperature         ... 298.15 K
Pressure            ... 1.00 atm
Total Mass          ... 170.71 AMU

Throughout the following assumptions are being made:
  (1) The electronic state is orbitally nondegenerate
  (2) There are no thermally accessible electronically excited states
  (3) Hindered rotations indicated by low frequency modes are not
      treated as such but are treated as vibrations and this may
      cause some error
  (4) All equations used are the standard statistical mechanics
      equations for an ideal gas
  (5) All vibrations are strictly harmonic

freq.      49.91  E(vib)   ...       0.52 
freq.      82.22  E(vib)   ...       0.48 
freq.     173.50  E(vib)   ...       0.38 
freq.     227.95  E(vib)   ...       0.33 
freq.     261.81  E(vib)   ...       0.30 
freq.     358.33  E(vib)   ...       0.22 
freq.     410.98  E(vib)   ...       0.19 
freq.     424.28  E(vib)   ...       0.18 
freq.     488.31  E(vib)   ...       0.15 
freq.     526.93  E(vib)   ...       0.13 
freq.     582.32  E(vib)   ...       0.11 
freq.     632.43  E(vib)   ...       0.09 
freq.     634.34  E(vib)   ...       0.09 
freq.     691.62  E(vib)   ...       0.07 
freq.     709.44  E(vib)   ...       0.07 
freq.     791.66  E(vib)   ...       0.05 
freq.     809.30  E(vib)   ...       0.05 
freq.     855.97  E(vib)   ...       0.04 
freq.     945.21  E(vib)   ...       0.03 
freq.     989.13  E(vib)   ...       0.02 
freq.    1016.46  E(vib)   ...       0.02 
freq.    1021.89  E(vib)   ...       0.02 
freq.    1049.78  E(vib)   ...       0.02 
freq.    1094.43  E(vib)   ...       0.02 
freq.    1105.44  E(vib)   ...       0.02 
freq.    1140.24  E(vib)   ...       0.01 
freq.    1182.51  E(vib)   ...       0.01 
freq.    1183.23  E(vib)   ...       0.01 
freq.    1208.66  E(vib)   ...       0.01 
freq.    1246.13  E(vib)   ...       0.01 
freq.    1336.77  E(vib)   ...       0.01 
freq.    1369.03  E(vib)   ...       0.01 
freq.    1435.39  E(vib)   ...       0.00 
freq.    1493.01  E(vib)   ...       0.00 
freq.    1533.74  E(vib)   ...       0.00 
freq.    1622.65  E(vib)   ...       0.00 
freq.    1623.55  E(vib)   ...       0.00 
freq.    1639.65  E(vib)   ...       0.00 
freq.    1778.18  E(vib)   ...       0.00 
freq.    3167.30  E(vib)   ...       0.00 
freq.    3174.81  E(vib)   ...       0.00 
freq.    3183.83  E(vib)   ...       0.00 
freq.    3192.85  E(vib)   ...       0.00 
freq.    3196.63  E(vib)   ...       0.00 
freq.    3201.45  E(vib)   ...       0.00 
freq.    3527.56  E(vib)   ...       0.00 
freq.    3628.36  E(vib)   ...       0.00 

------------
INNER ENERGY
------------

The inner energy is: U= E(el) + E(ZPE) + E(vib) + E(rot) + E(trans)
    E(el)   - is the total energy from the electronic structure calculation
              = E(kin-el) + E(nuc-el) + E(el-el) + E(nuc-nuc)
    E(ZPE)  - the the zero temperature vibrational energy from the frequency calculation
    E(vib)  - the the finite temperature correction to E(ZPE) due to population
              of excited vibrational states
    E(rot)  - is the rotational thermal energy
    E(trans)- is the translational thermal energy

Summary of contributions to the inner energy U:
Electronic energy                ...  -1967.12198141 Eh
Zero point energy                ...      0.14124446 Eh      88.63 kcal/mol
Thermal vibrational correction   ...      0.00583572 Eh       3.66 kcal/mol
Thermal rotational correction    ...      0.00141627 Eh       0.89 kcal/mol
Thermal translational correction ...      0.00141627 Eh       0.89 kcal/mol
-----------------------------------------------------------------------
Total thermal energy                  -1966.97206869 Eh


Summary of corrections to the electronic energy:
(perhaps to be used in another calculation)
Total thermal correction                  0.00866826 Eh       5.44 kcal/mol
Non-thermal (ZPE) correction              0.14124446 Eh      88.63 kcal/mol
-----------------------------------------------------------------------
Total correction                          0.14991272 Eh      94.07 kcal/mol


--------
ENTHALPY
--------

The enthalpy is H = U + kB*T
                kB is Boltzmann's constant
Total free energy                 ...  -1966.97206869 Eh 
Thermal Enthalpy correction       ...      0.00094421 Eh       0.59 kcal/mol
-----------------------------------------------------------------------
Total Enthalpy                    ...  -1966.97112448 Eh


Note: Only C1 symmetry has been detected, increase convergence thresholds 
      if your molecule has a higher symmetry. Symmetry factor of 1.0 is   
      used for the rotational entropy correction. 
 

Note: Rotational entropy computed according to Herzberg 
Infrared and Raman Spectra, Chapter V,1, Van Nostrand Reinhold, 1945 
Point Group:  C1, Symmetry Number:   1  
Rotational constants in cm-1:     0.104006     0.020437     0.019519 

Vibrational entropy computed according to the QRRHO of S. Grimme
Chem.Eur.J. 2012 18 9955


-------
ENTROPY
-------

The entropy contributions are T*S = T*(S(el)+S(vib)+S(rot)+S(trans))
     S(el)   - electronic entropy
     S(vib)  - vibrational entropy
     S(rot)  - rotational entropy
     S(trans)- translational entropy
The entropies will be listed as multiplied by the temperature to get
units of energy

Electronic entropy                ...      0.00000000 Eh      0.00 kcal/mol
Vibrational entropy               ...      0.00972011 Eh      6.10 kcal/mol
Rotational entropy                ...      0.01427425 Eh      8.96 kcal/mol
Translational entropy             ...      0.01962863 Eh     12.32 kcal/mol
-----------------------------------------------------------------------
Final entropy term                ...      0.04362298 Eh     27.37 kcal/mol

In case the symmetry of your molecule has not been determined correctly
or in case you have a reason to use a different symmetry number we print 
out the resulting rotational entropy values for sn=1,12 :
 --------------------------------------------------------
|  sn= 1 | S(rot)=       0.01427425 Eh      8.96 kcal/mol|
|  sn= 2 | S(rot)=       0.01361979 Eh      8.55 kcal/mol|
|  sn= 3 | S(rot)=       0.01323696 Eh      8.31 kcal/mol|
|  sn= 4 | S(rot)=       0.01296534 Eh      8.14 kcal/mol|
|  sn= 5 | S(rot)=       0.01275465 Eh      8.00 kcal/mol|
|  sn= 6 | S(rot)=       0.01258251 Eh      7.90 kcal/mol|
|  sn= 7 | S(rot)=       0.01243696 Eh      7.80 kcal/mol|
|  sn= 8 | S(rot)=       0.01231088 Eh      7.73 kcal/mol|
|  sn= 9 | S(rot)=       0.01219967 Eh      7.66 kcal/mol|
|  sn=10 | S(rot)=       0.01210019 Eh      7.59 kcal/mol|
|  sn=11 | S(rot)=       0.01201020 Eh      7.54 kcal/mol|
|  sn=12 | S(rot)=       0.01192805 Eh      7.48 kcal/mol|
 --------------------------------------------------------


-------------------
GIBBS FREE ENERGY
-------------------

The Gibbs free energy is G = H - T*S

Total enthalpy                    ...  -1966.97112448 Eh 
Total entropy correction          ...     -0.04362298 Eh    -27.37 kcal/mol
-----------------------------------------------------------------------
Final Gibbs free energy         ...  -1967.01474746 Eh

For completeness - the Gibbs free energy minus the electronic energy
G-E(el)                           ...      0.10723395 Eh     67.29 kcal/mol



Timings for individual modules:

Sum of individual times         ...    27459.719 sec (= 457.662 min)
GTO integral calculation        ...       92.924 sec (=   1.549 min)   0.3 %
SCF iterations                  ...     1678.712 sec (=  27.979 min)   6.1 %
SCF Gradient evaluation         ...      150.328 sec (=   2.505 min)   0.5 %
Geometry relaxation             ...        0.482 sec (=   0.008 min)   0.0 %
Numerical frequency calculation ...    25537.273 sec (= 425.621 min)  93.0 %
                             ****ORCA TERMINATED NORMALLY****
TOTAL RUN TIME: 0 days 7 hours 29 minutes 1 seconds 506 msec
