18
Properties=species:S:1:pos:R:3 energy=-1967.19620164574 pbc="F F F"
C       -1.92570900      -0.56245400      -0.99202500
C       -0.83295700       0.29398800      -1.10141400
C        0.33391900       0.03962200      -0.38796300
C        0.39803200      -1.09776600       0.43257900
C       -0.69915800      -1.94777500       0.54944200
C       -1.86488400      -1.67574400      -0.16092800
H       -2.82827700      -0.35522800      -1.55259700
H       -2.71763600      -2.33663300      -0.07569600
H       -0.88977300       1.16741500      -1.73982100
H        1.33010000      -1.34864100       0.93269600
H       -0.63488300      -2.82745700       1.17674500
C        1.47675600       1.01980300      -0.37785200
N        1.37340000       1.86406400       0.85412000
H        1.46924800       1.64639000      -1.27015200
H        2.43010800       0.49546200      -0.32883900
H        2.27171800       2.28342900       1.07771000
H        0.72960800       2.63436700       0.68880000
Cu       0.58038500       0.70715900       2.27519500
18
Properties=species:S:1:pos:R:3 energy=-1967.196197023228 pbc="F F F"
C       -1.92561200      -0.56698100      -0.99895200
C       -0.83477400       0.29252500      -1.10495900
C        0.32933000       0.04317700      -0.38510200
C        0.39166900      -1.09132200       0.43950300
C       -0.70347000      -1.94404300       0.55310300
C       -1.86613600      -1.67775000      -0.16476500
H       -2.82564400      -0.36390900      -1.56533100
H       -2.71684800      -2.34168400      -0.08336500
H       -0.89078100       1.16319600      -1.74692800
H        1.32250600      -1.34039700       0.94356800
H       -0.63970500      -2.82201600       1.18288300
C        1.47273600       1.02291000      -0.37829400
N        1.38130800       1.86224900       0.85778600
H        1.45831600       1.65321300      -1.26801300
H        2.42608100       0.49772100      -0.33993900
H        2.28065100       2.28376100       1.07179600
H        0.73271800       2.63097500       0.70286600
Cu       0.60765400       0.69837400       2.28414300
18
Properties=species:S:1:pos:R:3 energy=-1967.196182224437 pbc="F F F"
C       -1.92568900      -0.57122700      -1.00597100
C       -0.83646700       0.29078200      -1.10849000
C        0.32488500       0.04633100      -0.38290400
C        0.38571600      -1.08564200       0.44536000
C       -0.70786800      -1.94075600       0.55597700
C       -1.86738300      -1.67980000      -0.16859400
H       -2.82317800      -0.37221800      -1.57764800
H       -2.71640900      -2.34643200      -0.09088600
H       -0.89145800       1.15917000      -1.75382100
H        1.31496900      -1.33256700       0.95358800
H       -0.64502000      -2.81689200       1.18840300
C        1.46884700       1.02555200      -0.37876500
N        1.38818500       1.85984800       0.86130300
H        1.44823600       1.65974100      -1.26554400
H        2.42239400       0.49964300      -0.35038800
H        2.28840500       2.28498000       1.06564100
H        0.73452400       2.62614200       0.71658000
Cu       0.63731200       0.69334500       2.29615900
18
Properties=species:S:1:pos:R:3 energy=-1967.196158437574 pbc="F F F"
C       -1.92563100      -0.57532700      -1.01281300
C       -0.83793700       0.28916400      -1.11161900
C        0.32058600       0.04910200      -0.38037400
C        0.37981000      -1.08061600       0.45102400
C       -0.71241400      -1.93772400       0.55868100
C       -1.86870700      -1.68186400      -0.17263800
H       -2.82023400      -0.38036500      -1.59018000
H       -2.71618400      -2.35094900      -0.09855600
H       -0.89179500       1.15566000      -1.75961800
H        1.30750600      -1.32564900       0.96337200
H       -0.65091000      -2.81210700       1.19373700
C        1.46504800       1.02794000      -0.37905900
N        1.39505500       1.85772700       0.86459700
H        1.43794500       1.66564400      -1.26316200
H        2.41875700       0.50177400      -0.36055600
H        2.29535700       2.28729200       1.05912400
H        0.73561000       2.62097000       0.72986400
Cu       0.66813700       0.68932800       2.30817700
18
Properties=species:S:1:pos:R:3 energy=-1967.196122686228 pbc="F F F"
C       -1.92523400      -0.57924900      -1.01947100
C       -0.83926200       0.28768900      -1.11447900
C        0.31674300       0.05132900      -0.37768500
C        0.37399700      -1.07613300       0.45638700
C       -0.71693000      -1.93501600       0.56133600
C       -1.87015900      -1.68375200      -0.17689500
H       -2.81696800      -0.38821500      -1.60283400
H       -2.71616000      -2.35502700      -0.10596000
H       -0.89175700       1.15268300      -1.76449800
H        1.30029200      -1.31964500       0.97262900
H       -0.65710500      -2.80751200       1.19889900
C        1.46115900       1.03011100      -0.37913300
N        1.40136300       1.85586100       0.86764400
H        1.42764000       1.67093900      -1.26074000
H        2.41510500       0.50397200      -0.37008000
H        2.30155000       2.29047000       1.05217900
H        0.73599800       2.61554500       0.74260600
Cu       0.69972800       0.68595000       2.32009500
18
Properties=species:S:1:pos:R:3 energy=-1967.196076523089 pbc="F F F"
C       -1.92441300      -0.58292800      -1.02627900
C       -0.84001400       0.28652100      -1.11609900
C        0.31328200       0.05282200      -0.37461400
C        0.36890800      -1.07325600       0.46123400
C       -0.72165300      -1.93282000       0.56377600
C       -1.87146100      -1.68549500      -0.18092700
H       -2.81257000      -0.39573700      -1.61607800
H       -2.71647400      -2.35835800      -0.11303600
H       -0.89120700       1.15137100      -1.76640600
H        1.29399000      -1.31634200       0.98014800
H       -0.66410300      -2.80334500       1.20446300
C        1.45743800       1.03184700      -0.37881800
N        1.40703300       1.85478900       0.87018200
H        1.41671900       1.67518700      -1.25832600
H        2.41169000       0.50652900      -0.37859300
H        2.30664900       2.29462600       1.04421000
H        0.73560000       2.61073300       0.75392500
Cu       0.73058500       0.68385600       2.33123800
18
Properties=species:S:1:pos:R:3 energy=-1967.196026327788 pbc="F F F"
C       -1.92325100      -0.58592000      -1.03224100
C       -0.84036600       0.28555500      -1.11716100
C        0.31068300       0.05365300      -0.37180200
C        0.36504100      -1.07148800       0.46503200
C       -0.72546300      -1.93140700       0.56576300
C       -1.87232500      -1.68679100      -0.18443400
H       -2.80836500      -0.40168800      -1.62757600
H       -2.71687600      -2.36045500      -0.11845600
H       -0.89021000       1.15142400      -1.76652000
H        1.28902000      -1.31409500       0.98609400
H       -0.67012900      -2.79993700       1.20915600
C        1.45356300       1.03327900      -0.37842200
N        1.41063200       1.85413800       0.87187600
H        1.40696400       1.67786700      -1.25601900
H        2.40893000       0.50845100      -0.38479100
H        2.31033200       2.29806700       1.03662300
H        0.73496400       2.60726900       0.76267700
Cu       0.75685600       0.68207600       2.34020000
18
Properties=species:S:1:pos:R:3 energy=-1967.195965990221 pbc="F F F"
C       -1.92387000      -0.58919200      -1.03759500
C       -0.84161100       0.28381400      -1.12135300
C        0.30710100       0.05650100      -0.37062400
C        0.35911800      -1.06629900       0.46917100
C       -0.72973600      -1.92830100       0.56773800
C       -1.87437800      -1.68799700      -0.18723200
H       -2.80729800      -0.40801700      -1.63649000
H       -2.71718800      -2.36416500      -0.12476000
H       -0.89056600       1.14577400      -1.77568800
H        1.28153100      -1.30722100       0.99450100
H       -0.67511600      -2.79611700       1.21260200
C        1.45169800       1.03512400      -0.37852900
N        1.41673300       1.85203300       0.87488000
H        1.40152000       1.68322900      -1.25442000
H        2.40623700       0.50981100      -0.39225000
H        2.31358700       2.30343000       1.03304000
H        0.73249400       2.59900400       0.77505400
Cu       0.78974100       0.67859100       2.35195300
18
Properties=species:S:1:pos:R:3 energy=-1967.195893812944 pbc="F F F"
C       -1.92325000      -0.59224200      -1.04397500
C       -0.84236300       0.28225900      -1.12420400
C        0.30404300       0.05789200      -0.36897800
C        0.35424900      -1.06276000       0.47329700
C       -0.73398900      -1.92576800       0.56958600
C       -1.87548500      -1.68941500      -0.19144200
H       -2.80375100      -0.41438800      -1.64803800
H       -2.71778000      -2.36653000      -0.13035700
H       -0.88971000       1.14322400      -1.78019400
H        1.27492300      -1.30238700       1.00228700
H       -0.68098600      -2.79115500       1.21724300
C        1.44771200       1.03689200      -0.37846300
N        1.42025600       1.84973900       0.87761500
H        1.39338400       1.68761100      -1.25110300
H        2.40257800       0.51123800      -0.39875200
H        2.31630100       2.30800000       1.02404300
H        0.73049300       2.59247000       0.78650600
Cu       0.82337400       0.67532100       2.36492800
18
Properties=species:S:1:pos:R:3 energy=-1967.195818778609 pbc="F F F"
C       -1.92440700      -0.59493500      -1.04918000
C       -0.84353200       0.28008000      -1.13104700
C        0.29985300       0.06095800      -0.36998100
C        0.34891700      -1.05658000       0.47540900
C       -0.73630600      -1.92255500       0.56959200
C       -1.87689600      -1.68987400      -0.19409300
H       -2.80505600      -0.41790400      -1.65348100
H       -2.71770800      -2.36880600      -0.13477300
H       -0.88944700       1.13637500      -1.79280100
H        1.26649000      -1.29053600       1.01283300
H       -0.68299900      -2.78714900       1.21869800
C        1.44626200       1.03705200      -0.37829200
N        1.42328200       1.84530000       0.88069300
H        1.39146400       1.69298100      -1.24842400
H        2.39934800       0.51011000      -0.40340500
H        2.31583200       2.31129600       1.01878300
H        0.72543700       2.58177000       0.79863700
Cu       0.85946500       0.67241500       2.38083000
18
Properties=species:S:1:pos:R:3 energy=-1967.195729625126 pbc="F F F"
C       -1.92456900      -0.59776800      -1.05522900
C       -0.84436300       0.27836800      -1.13500800
C        0.29657700       0.06252400      -0.36917700
C        0.34358800      -1.05319200       0.47796700
C       -0.74053200      -1.92040300       0.57036600
C       -1.87877300      -1.69092700      -0.19783300
H       -2.80328800      -0.42313600      -1.66309400
H       -2.71865500      -2.37124300      -0.14075100
H       -0.88881700       1.13246600      -1.79966000
H        1.25873900      -1.28431600       1.02085500
H       -0.68867200      -2.78338000       1.22182900
C        1.44375300       1.03779900      -0.37789800
N        1.42689200       1.84284200       0.88316900
H        1.38614000       1.69670400      -1.24574600
H        2.39647600       0.51056800      -0.40843900
H        2.31598700       2.31822500       1.01184700
H        0.72040100       2.57204300       0.81014600
Cu       0.89911700       0.67282600       2.39665700
18
Properties=species:S:1:pos:R:3 energy=-1967.195645977951 pbc="F F F"
C       -1.92465900      -0.60031900      -1.06101700
C       -0.84530700       0.27696600      -1.13785600
C        0.29392300       0.06346800      -0.36826800
C        0.33869300      -1.05106500       0.47994900
C       -0.74512500      -1.91853700       0.57108100
C       -1.88099400      -1.69175400      -0.20139900
H       -2.80102700      -0.42830100      -1.67305500
H       -2.71969200      -2.37375000      -0.14695900
H       -0.88835000       1.12871100      -1.80568300
H        1.25198800      -1.28145000       1.02622700
H       -0.69496300      -2.77932200       1.22539200
C        1.44109500       1.03858400      -0.37726100
N        1.43014600       1.84054000       0.88589100
H        1.38146900       1.70069600      -1.24211400
H        2.39420900       0.51086900      -0.41302100
H        2.31577200       2.32636200       1.00324500
H        0.71509000       2.56207300       0.82153400
Cu       0.93773300       0.67622900       2.41331400
18
Properties=species:S:1:pos:R:3 energy=-1967.195565968266 pbc="F F F"
C       -1.92406400      -0.60293600      -1.06741000
C       -0.84546600       0.27558900      -1.14063700
C        0.29110400       0.06351000      -0.36679400
C        0.33404700      -1.04982000       0.48224700
C       -0.74937000      -1.91744500       0.57136000
C       -1.88245800      -1.69297300      -0.20579000
H       -2.79788600      -0.43286000      -1.68351200
H       -2.72103200      -2.37509900      -0.15250200
H       -0.88676800       1.12736300      -1.80858900
H        1.24511200      -1.27753300       1.03344700
H       -0.70122000      -2.77648800       1.22821800
C        1.43775200       1.03860900      -0.37628000
N        1.43289600       1.83874900       0.88798000
H        1.37431500       1.70296700      -1.23919200
H        2.39107300       0.51143500      -0.41717000
H        2.31502800       2.33333300       0.99418300
H        0.71000900       2.55335100       0.83192700
Cu       0.97692900       0.68024800       2.42851200
18
Properties=species:S:1:pos:R:3 energy=-1967.195471673788 pbc="F F F"
C       -1.92372700      -0.60546200      -1.07303700
C       -0.84575200       0.27412900      -1.14321500
C        0.28774600       0.06426800      -0.36460700
C        0.32915500      -1.04800400       0.48514800
C       -0.75361600      -1.91614800       0.57190800
C       -1.88442500      -1.69409100      -0.20995000
H       -2.79499300      -0.43740400      -1.69353000
H       -2.72267200      -2.37716900      -0.15908500
H       -0.88511900       1.12471300      -1.81232500
H        1.23772700      -1.27443000       1.04107100
H       -0.70814900      -2.77417900       1.23050600
C        1.43597000       1.03827900      -0.37484900
N        1.43669700       1.83746600       0.88958600
H        1.36763900       1.70548200      -1.23688500
H        2.38822900       0.51272100      -0.42207800
H        2.31345400       2.34184300       0.98641700
H        0.70484400       2.54374600       0.84281600
Cu       1.01699300       0.68424000       2.44211000
18
Properties=species:S:1:pos:R:3 energy=-1967.195377994741 pbc="F F F"
C       -1.92329900      -0.60760700      -1.07824900
C       -0.84583100       0.27280100      -1.14519800
C        0.28530800       0.06472100      -0.36256800
C        0.32483900      -1.04676200       0.48788900
C       -0.75784800      -1.91506700       0.57241600
C       -1.88618800      -1.69498900      -0.21362300
H       -2.79207900      -0.44126800      -1.70275600
H       -2.72397700      -2.37866700      -0.16492100
H       -0.88334300       1.12251200      -1.81555800
H        1.23137700      -1.27234400       1.04766000
H       -0.71450400      -2.77184800       1.23283700
C        1.43363100       1.03843500      -0.37401100
N        1.43956700       1.83609300       0.89131700
H        1.36159700       1.70783800      -1.23414300
H        2.38594900       0.51358800      -0.42633800
H        2.31187900       2.35005400       0.97816900
H        0.69977000       2.53459600       0.85290300
Cu       1.05315100       0.68791200       2.45417500
18
Properties=species:S:1:pos:R:3 energy=-1967.195324671755 pbc="F F F"
C       -1.92298700      -0.60853600      -1.08085300
C       -0.84564600       0.27206300      -1.14679900
C        0.28413400       0.06479500      -0.36195500
C        0.32289000      -1.04587800       0.48912000
C       -0.75922400      -1.91480000       0.57216100
C       -1.88661600      -1.69536800      -0.21557900
H       -2.79126900      -0.44224000      -1.70618900
H       -2.72447900      -2.37881500      -0.16702300
H       -0.88214600       1.12182600      -1.81711500
H        1.22800100      -1.26936900       1.05224000
H       -0.71649600      -2.77123200       1.23310400
C        1.43244400       1.03798700      -0.37358800
N        1.44033400       1.83495300       0.89200400
H        1.35869600       1.70845000      -1.23290400
H        2.38452500       0.51358100      -0.42809900
H        2.31065300       2.35277100       0.97428100
H        0.69712300       2.53017600       0.85732600
Cu       1.07006500       0.68963500       2.45986900
18
Properties=species:S:1:pos:R:3 energy=-1967.195292892347 pbc="F F F"
C       -1.92406100      -0.60835200      -1.08211700
C       -0.84587600       0.27107300      -1.15072700
C        0.28334400       0.06537100      -0.36363000
C        0.32081800      -1.04330900       0.48933600
C       -0.75878700      -1.91504200       0.57025600
C       -1.88682000      -1.69532900      -0.21698200
H       -2.79462300      -0.44042000      -1.70401900
H       -2.72466500      -2.37896900      -0.16780000
H       -0.88135900       1.11863300      -1.82360200
H        1.22329900      -1.26062400       1.05913800
H       -0.71449200      -2.77248000       1.22968400
C        1.43255400       1.03714200      -0.37404100
N        1.44057500       1.83198100       0.89259100
H        1.36024000       1.70888900      -1.23234200
H        2.38352800       0.51123900      -0.42855300
H        2.30833900       2.35389000       0.97398300
H        0.69291300       2.52307600       0.86049000
Cu       1.08507500       0.69323100       2.46833500
18
Properties=species:S:1:pos:R:3 energy=-1967.195220811991 pbc="F F F"
C       -1.92831600      -0.60587800      -1.07948400
C       -0.84697800       0.27022100      -1.15338900
C        0.28244200       0.06606000      -0.36753900
C        0.31940300      -1.04151100       0.48827800
C       -0.75920500      -1.91497200       0.56621500
C       -1.88764700      -1.69582500      -0.21737600
H       -2.80128100      -0.43600400      -1.69607000
H       -2.72390100      -2.38090900      -0.17008000
H       -0.88224500       1.11037900      -1.83676000
H        1.21934000      -1.25483900       1.06264400
H       -0.71019300      -2.77454200       1.22280300
C        1.43342200       1.03660900      -0.37504100
N        1.44043700       1.82822900       0.89540200
H        1.36999200       1.71149200      -1.23124600
H        2.38486300       0.50629400      -0.42718200
H        2.30542000       2.35736100       0.97334300
H        0.68791000       2.51310600       0.86264800
Cu       1.09653600       0.70473100       2.48283400
18
Properties=species:S:1:pos:R:3 energy=-1967.19511038568 pbc="F F F"
C       -1.92940600      -0.60581700      -1.07848000
C       -0.84878800       0.27046800      -1.15268900
C        0.28242300       0.06662900      -0.36423100
C        0.31590000      -1.04257000       0.48868700
C       -0.76467700      -1.91297900       0.56993500
C       -1.89184000      -1.69514400      -0.21648600
H       -2.80034100      -0.43845300      -1.69820200
H       -2.72426400      -2.38784200      -0.17675100
H       -0.88488000       1.10437600      -1.84218100
H        1.21936200      -1.27008700       1.05096600
H       -0.71600500      -2.77231300       1.22454500
C        1.43558100       1.03753900      -0.37209700
N        1.44471800       1.83073600       0.89687400
H        1.37621800       1.71077600      -1.22315400
H        2.38718900       0.50953900      -0.42794200
H        2.30256800       2.37000600       0.96903300
H        0.68695200       2.51222400       0.86868700
Cu       1.10929000       0.71291200       2.48348700
18
Properties=species:S:1:pos:R:3 energy=-1967.194748213981 pbc="F F F"
C       -1.91331300      -0.61991200      -1.10097900
C       -0.84429200       0.27060800      -1.13721800
C        0.27971000       0.06423900      -0.34350200
C        0.31206800      -1.05164600       0.50323600
C       -0.78203300      -1.90786900       0.58768000
C       -1.89361100      -1.69807500      -0.22404700
H       -2.75692500      -0.47226000      -1.76277500
H       -2.73040900      -2.38411900      -0.18772400
H       -0.87669100       1.12716900      -1.79921200
H        1.22021600      -1.30227500       1.05038000
H       -0.75890600      -2.75085800       1.26630600
C        1.41910600       1.04848200      -0.36842400
N        1.45223400       1.84636700       0.89608000
H        1.32136400       1.71727900      -1.22426900
H        2.37716400       0.53325600      -0.44111400
H        2.31344500       2.38673700       0.94031300
H        0.69369900       2.52592700       0.88950400
Cu       1.16717400       0.66695000       2.45576400
18
Properties=species:S:1:pos:R:3 energy=-1967.194931007729 pbc="F F F"
C       -1.91894200      -0.61561200      -1.10204700
C       -0.84339600       0.26677100      -1.15815000
C        0.27660500       0.06310500      -0.35905800
C        0.30809500      -1.03960000       0.49997900
C       -0.77129600      -1.91118500       0.57298200
C       -1.88803200      -1.69910900      -0.23181800
H       -2.77984000      -0.45459900      -1.73801400
H       -2.72970200      -2.37727900      -0.17967800
H       -0.87298400       1.11921600      -1.82574800
H        1.20247300      -1.24253100       1.08857500
H       -0.73415300      -2.76225400       1.24089600
C        1.41985600       1.03858800      -0.37172100
N        1.44572200       1.82668700       0.89882000
H        1.33259100       1.71453900      -1.22534000
H        2.37129100       0.51580800      -0.44074100
H        2.30161400       2.37265600       0.94674200
H        0.67889400       2.49716400       0.89177600
Cu       1.20120700       0.68763100       2.49254300
18
Properties=species:S:1:pos:R:3 energy=-1967.194681601315 pbc="F F F"
C       -1.91834400      -0.62220500      -1.11330900
C       -0.84441400       0.26326900      -1.16035000
C        0.27099500       0.06664200      -0.35099300
C        0.29363300      -1.03731700       0.50759800
C       -0.78870100      -1.90615600       0.57907300
C       -1.89765300      -1.70110200      -0.23732700
H       -2.76962600      -0.46955700      -1.76387500
H       -2.73435900      -2.38720700      -0.19944300
H       -0.87085900       1.10806800      -1.83805300
H        1.18540900      -1.25196500       1.09407400
H       -0.75888200      -2.75351100       1.25189700
C        1.41674600       1.04295100      -0.36704300
N        1.45621800       1.82971700       0.90477400
H        1.32452000       1.72085400      -1.21623400
H        2.37063500       0.52311500      -0.44918100
H        2.29274800       2.40799000       0.93148100
H        0.66769600       2.47380900       0.92158400
Cu       1.30424100       0.69260600       2.50532700
18
Properties=species:S:1:pos:R:3 energy=-1967.194531849386 pbc="F F F"
C       -1.92074500      -0.62386300      -1.11899500
C       -0.84589700       0.26011200      -1.16642400
C        0.26652700       0.06853600      -0.35116200
C        0.28742200      -1.03459500       0.50798300
C       -0.79290100      -1.90630200       0.57564500
C       -1.90172200      -1.70100000      -0.24108700
H       -2.77288200      -0.46937500      -1.76883600
H       -2.73540900      -2.39007400      -0.20824200
H       -0.86895200       1.09914500      -1.85188300
H        1.17372700      -1.24393300       1.10377600
H       -0.76348100      -2.75254900       1.24990200
C        1.41648900       1.04098700      -0.36529200
N        1.45692700       1.82498800       0.90960400
H        1.32581500       1.72535800      -1.21079100
H        2.36930400       0.51850500      -0.45065500
H        2.28457600       2.41976000       0.92052000
H        0.65710100       2.45311300       0.93760100
Cu       1.36410100       0.71118700       2.52833800
18
Properties=species:S:1:pos:R:3 energy=-1967.194417696614 pbc="F F F"
C       -1.91802700      -0.62737800      -1.12684100
C       -0.84391500       0.25815000      -1.16980200
C        0.26415300       0.06824400      -0.34848200
C        0.28152600      -1.03290700       0.51261100
C       -0.79928000      -1.90342900       0.57858000
C       -1.90339500      -1.70192200      -0.24560500
H       -2.76553000      -0.47660100      -1.78307200
H       -2.73831700      -2.39049900      -0.21360000
H       -0.86537700       1.09845700      -1.85318200
H        1.16451700      -1.23987400       1.11385400
H       -0.77391100      -2.74783000       1.25560400
C        1.41128900       1.04243200      -0.36305300
N        1.46108300       1.82399000       0.91138900
H        1.31609100       1.72617400      -1.20711100
H        2.36458400       0.52344800      -0.45546000
H        2.27778300       2.43074500       0.91444000
H        0.65202300       2.44065100       0.95126500
Cu       1.41470200       0.70814900       2.52846500
18
Properties=species:S:1:pos:R:3 energy=-1967.194284819717 pbc="F F F"
C       -1.91546200      -0.63050400      -1.13321500
C       -0.84272100       0.25679400      -1.17103600
C        0.26252400       0.06809900      -0.34534300
C        0.27596800      -1.03157300       0.51762200
C       -0.80595500      -1.90110900       0.58228100
C       -1.90534100      -1.70282900      -0.24891600
H       -2.75846200      -0.48370900      -1.79627800
H       -2.74045500      -2.39149100      -0.21873200
H       -0.86268400       1.09814000      -1.85350400
H        1.15770900      -1.23963200       1.12013400
H       -0.78402300      -2.74341700       1.26188400
C        1.40884700       1.04408800      -0.36139700
N        1.46328300       1.82526300       0.91315200
H        1.30730000       1.72760100      -1.20457700
H        2.36264900       0.52740700      -0.45894200
H        2.27320000       2.44206300       0.90930100
H        0.64798600       2.43244900       0.96316400
Cu       1.45563600       0.70236300       2.52440300
18
Properties=species:S:1:pos:R:3 energy=-1967.19416047302 pbc="F F F"
C       -1.91249900      -0.63399200      -1.13962700
C       -0.84132100       0.25584800      -1.17201100
C        0.26095300       0.06804600      -0.34213000
C        0.27104900      -1.03037100       0.52219400
C       -0.81109700      -1.89948500       0.58551800
C       -1.90647700      -1.70334200      -0.25149700
H       -2.75183000      -0.48968300      -1.80802200
H       -2.74188600      -2.39122300      -0.22183600
H       -0.86012500       1.09986300      -1.85119800
H        1.15258100      -1.23885000       1.12525900
H       -0.79223700      -2.74019500       1.26810200
C        1.40816300       1.04427400      -0.35995900
N        1.46413000       1.82754300       0.91445900
H        1.29706800       1.72888200      -1.20261000
H        2.36319600       0.52933300      -0.46203500
H        2.26948500       2.44944700       0.90451400
H        0.64401000       2.42890600       0.97324700
Cu       1.48683500       0.69499900       2.51763100
18
Properties=species:S:1:pos:R:3 energy=-1967.194107980789 pbc="F F F"
C       -1.92181000      -0.62880000      -1.13474800
C       -0.84536100       0.25444600      -1.17681500
C        0.25919600       0.06980900      -0.34882100
C        0.26761500      -1.02487800       0.52128300
C       -0.80900700      -1.90098200       0.57529700
C       -1.90774400      -1.70588700      -0.25697000
H       -2.76726900      -0.47990700      -1.79408600
H       -2.74254700      -2.39508300      -0.22905400
H       -0.86026300       1.08159500      -1.87633900
H        1.13933700      -1.22044200       1.14206900
H       -0.78536400      -2.74528800       1.25226300
C        1.40859900       1.04373600      -0.36351900
N        1.46543500       1.81645600       0.91749000
H        1.31530200       1.73469700      -1.20220300
H        2.36209200       0.52021200      -0.45972700
H        2.25878300       2.45324800       0.90225500
H        0.63566100       2.40250900       0.97997400
Cu       1.52734500       0.72455900       2.55165000
18
Properties=species:S:1:pos:R:3 energy=-1967.193986677805 pbc="F F F"
C       -1.90791200      -0.63721800      -1.14839500
C       -0.83942300       0.25413400      -1.17271800
C        0.25885100       0.06706000      -0.33813700
C        0.26741200      -1.03019500       0.52740300
C       -0.81684600      -1.89716200       0.58859600
C       -1.90630300      -1.70372400      -0.25662600
H       -2.74069700      -0.49675600      -1.82520900
H       -2.74342800      -2.38942500      -0.22642100
H       -0.85512900       1.10171300      -1.84796800
H        1.14578500      -1.23747600       1.13475100
H       -0.80378400      -2.73205100       1.27703300
C        1.39964900       1.04695800      -0.35797300
N        1.46332800       1.82693000       0.91679100
H        1.28529600       1.72948500      -1.19783900
H        2.35742800       0.53251200      -0.46349600
H        2.26209700       2.45827800       0.89085100
H        0.63944400       2.42070200       0.98857300
Cu       1.53423200       0.68623500       2.51078400
18
Properties=species:S:1:pos:R:3 energy=-1967.193804870683 pbc="F F F"
C       -1.90790600      -0.64079300      -1.15773300
C       -0.83943600       0.25098000      -1.17780200
C        0.25380600       0.06928200      -0.33457700
C        0.25599300      -1.02437100       0.53574600
C       -0.82721700      -1.89329600       0.58975000
C       -1.91058500      -1.70578700      -0.26469200
H       -2.73500800      -0.50375500      -1.84225200
H       -2.74583900      -2.39400000      -0.24129100
H       -0.84934800       1.09133800      -1.86152100
H        1.12596500      -1.22659200       1.15763600
H       -0.81967500      -2.72532300       1.28224100
C        1.39614100       1.04875200      -0.35680200