
                                 *****************
                                 * O   R   C   A *
                                 *****************

                                            #,                                       
                                            ###                                      
                                            ####                                     
                                            #####                                    
                                            ######                                   
                                           ########,                                 
                                     ,,################,,,,,                         
                               ,,#################################,,                 
                          ,,##########################################,,             
                       ,#########################################, ''#####,          
                    ,#############################################,,   '####,        
                  ,##################################################,,,,####,       
                ,###########''''           ''''###############################       
              ,#####''   ,,,,##########,,,,          '''####'''          '####       
            ,##' ,,,,###########################,,,                        '##       
           ' ,,###''''                  '''############,,,                           
         ,,##''                                '''############,,,,        ,,,,,,###''
      ,#''                                            '''#######################'''  
     '                                                          ''''####''''         
             ,#######,   #######,   ,#######,      ##                                
            ,#'     '#,  ##    ##  ,#'     '#,    #''#        ######   ,####,        
            ##       ##  ##   ,#'  ##            #'  '#       #        #'  '#        
            ##       ##  #######   ##           ,######,      #####,   #    #        
            '#,     ,#'  ##    ##  '#,     ,#' ,#      #,         ##   #,  ,#        
             '#######'   ##     ##  '#######'  #'      '#     #####' # '####'        



                  #######################################################
                  #                        -***-                        #
                  #          Department of theory and spectroscopy      #
                  #    Directorship and core code : Frank Neese         #
                  #        Max Planck Institute fuer Kohlenforschung    #
                  #                Kaiser Wilhelm Platz 1               #
                  #                 D-45470 Muelheim/Ruhr               #
                  #                      Germany                        #
                  #                                                     #
                  #                  All rights reserved                #
                  #                        -***-                        #
                  #######################################################


                         Program Version 5.0.3 -  RELEASE  -


 With contributions from (in alphabetic order):
   Daniel Aravena         : Magnetic Suceptibility
   Michael Atanasov       : Ab Initio Ligand Field Theory (pilot matlab implementation)
   Alexander A. Auer      : GIAO ZORA, VPT2 properties, NMR spectrum
   Ute Becker             : Parallelization
   Giovanni Bistoni       : ED, misc. LED, open-shell LED, HFLD
   Martin Brehm           : Molecular dynamics
   Dmytro Bykov           : SCF Hessian
   Vijay G. Chilkuri      : MRCI spin determinant printing, contributions to CSF-ICE
   Dipayan Datta          : RHF DLPNO-CCSD density
   Achintya Kumar Dutta   : EOM-CC, STEOM-CC
   Dmitry Ganyushin       : Spin-Orbit,Spin-Spin,Magnetic field MRCI
   Miquel Garcia          : C-PCM and meta-GGA Hessian, CC/C-PCM, Gaussian charge scheme
   Yang Guo               : DLPNO-NEVPT2, F12-NEVPT2, CIM, IAO-localization
   Andreas Hansen         : Spin unrestricted coupled pair/coupled cluster methods
   Benjamin Helmich-Paris : MC-RPA, TRAH-SCF, COSX integrals
   Lee Huntington         : MR-EOM, pCC
   Robert Izsak           : Overlap fitted RIJCOSX, COSX-SCS-MP3, EOM
   Marcus Kettner         : VPT2
   Christian Kollmar      : KDIIS, OOCD, Brueckner-CCSD(T), CCSD density, CASPT2, CASPT2-K
   Simone Kossmann        : Meta GGA functionals, TD-DFT gradient, OOMP2, MP2 Hessian
   Martin Krupicka        : Initial AUTO-CI
   Lucas Lang             : DCDCAS
   Marvin Lechner         : AUTO-CI (C++ implementation), FIC-MRCC
   Dagmar Lenk            : GEPOL surface, SMD
   Dimitrios Liakos       : Extrapolation schemes; Compound Job, initial MDCI parallelization
   Dimitrios Manganas     : Further ROCIS development; embedding schemes
   Dimitrios Pantazis     : SARC Basis sets
   Anastasios Papadopoulos: AUTO-CI, single reference methods and gradients
   Taras Petrenko         : DFT Hessian,TD-DFT gradient, ASA, ECA, R-Raman, ABS, FL, XAS/XES, NRVS
   Peter Pinski           : DLPNO-MP2, DLPNO-MP2 Gradient
   Christoph Reimann      : Effective Core Potentials
   Marius Retegan         : Local ZFS, SOC
   Christoph Riplinger    : Optimizer, TS searches, QM/MM, DLPNO-CCSD(T), (RO)-DLPNO pert. Triples
   Tobias Risthaus        : Range-separated hybrids, TD-DFT gradient, RPA, STAB
   Michael Roemelt        : Original ROCIS implementation
   Masaaki Saitow         : Open-shell DLPNO-CCSD energy and density
   Barbara Sandhoefer     : DKH picture change effects
   Avijit Sen             : IP-ROCIS
   Kantharuban Sivalingam : CASSCF convergence, NEVPT2, FIC-MRCI
   Bernardo de Souza      : ESD, SOC TD-DFT
   Georgi Stoychev        : AutoAux, RI-MP2 NMR, DLPNO-MP2 response
   Willem Van den Heuvel  : Paramagnetic NMR
   Boris Wezisla          : Elementary symmetry handling
   Frank Wennmohs         : Technical directorship


 We gratefully acknowledge several colleagues who have allowed us to
 interface, adapt or use parts of their codes:
   Stefan Grimme, W. Hujo, H. Kruse, P. Pracht,  : VdW corrections, initial TS optimization,
                  C. Bannwarth, S. Ehlert          DFT functionals, gCP, sTDA/sTD-DF
   Ed Valeev, F. Pavosevic, A. Kumar             : LibInt (2-el integral package), F12 methods
   Garnet Chan, S. Sharma, J. Yang, R. Olivares  : DMRG
   Ulf Ekstrom                                   : XCFun DFT Library
   Mihaly Kallay                                 : mrcc  (arbitrary order and MRCC methods)
   Jiri Pittner, Ondrej Demel                    : Mk-CCSD
   Frank Weinhold                                : gennbo (NPA and NBO analysis)
   Christopher J. Cramer and Donald G. Truhlar   : smd solvation model
   Lars Goerigk                                  : TD-DFT with DH, B97 family of functionals
   V. Asgeirsson, H. Jonsson                     : NEB implementation
   FAccTs GmbH                                   : IRC, NEB, NEB-TS, DLPNO-Multilevel, CI-OPT
                                                   MM, QMMM, 2- and 3-layer-ONIOM, Crystal-QMMM,
                                                   LR-CPCM, SF, NACMEs, symmetry and pop. for TD-DFT,
                                                   nearIR, NL-DFT gradient (VV10), updates on ESD,
                                                   ML-optimized integration grids
   S Lehtola, MJT Oliveira, MAL Marques          : LibXC Library
   Liviu Ungur et al                             : ANISO software


 Your calculation uses the libint2 library for the computation of 2-el integrals
 For citations please refer to: http://libint.valeyev.net

 Your ORCA version has been built with support for libXC version: 5.1.0
 For citations please refer to: https://tddft.org/programs/libxc/

 This ORCA versions uses:
   CBLAS   interface :  Fast vector & matrix operations
   LAPACKE interface :  Fast linear algebra routines
   SCALAPACK package :  Parallel linear algebra routines
   Shared memory     :  Shared parallel matrices
   BLAS/LAPACK       :  OpenBLAS 0.3.15  USE64BITINT DYNAMIC_ARCH NO_AFFINITY Haswell SINGLE_THREADED
        Core in use  :  Haswell
   Copyright (c) 2011-2014, The OpenBLAS Project




***************************************
The coordinates will be read from file: orca_IRC_F.xyz
***************************************


Your calculation utilizes the atom-pairwise dispersion correction
with the Becke-Johnson damping scheme (D3BJ)
Cite in your paper:
S.Grimme, S.Ehrlich, L.Goerigk, J Comput Chem, (2011), 32, 1456–1465 
S.Grimme, J.Antony, S.Ehrlich and H.Krieg, J.Chem.Phys., 132, (2010), 154104 
   

================================================================================

----- Orbital basis set information -----
Your calculation utilizes the basis: def2-TZVP
   F. Weigend and R. Ahlrichs, Phys. Chem. Chem. Phys. 7, 3297 (2005).

----- AuxJ basis set information -----
Your calculation utilizes the auxiliary basis: def2/J
   F. Weigend, Phys. Chem. Chem. Phys. 8, 1057 (2006).

================================================================================
                                        WARNINGS
                       Please study these warnings very carefully!
================================================================================


WARNING: Geometry Optimization
  ===> : Switching off AutoStart
         For restart on a previous wavefunction, please use MOREAD

INFO   : the flag for use of the SHARK integral package has been found!

================================================================================
                                       INPUT FILE
================================================================================
NAME = orca.inp
|  1> !B3LYP DEF2-TZVP D3BJ 
|  2> !OPT FREQ TIGHTOPT TightSCF defgrid2
|  3> %SCF
|  4>     MaxIter 2000       # Here setting MaxIter to a very high number. Intended for systems that require sometimes 1000 iterations before converging (very rare).
|  5>     DIISMaxEq 5        # Default value is 5. A value of 15-40 necessary for difficult systems.
|  6>     directresetfreq 15 # Default value is 15. A value of 1 (very expensive) is sometimes required. A value between 1 and 15 may be more cost-effective.
|  7> END
|  8> %CPCM EPSILON 6.02 REFRAC 1.3723 END
|  9> %PAL NPROCS 32 END
| 10> %maxcore 2000 # This indicates you want ORCA to use only 2GB per core maximum, so ORCA will use only 2GB*32=64GB of memory in total.
| 11> * xyzfile 1 1 orca_IRC_F.xyz
| 12> 
| 13> 
| 14>                          ****END OF INPUT****
================================================================================

                       *****************************
                       * Geometry Optimization Run *
                       *****************************

Geometry optimization settings:
Update method            Update   .... BFGS
Choice of coordinates    CoordSys .... Z-matrix Internals
Initial Hessian          InHess   .... Almoef's Model

Convergence Tolerances:
Energy Change            TolE     ....  1.0000e-06 Eh
Max. Gradient            TolMAXG  ....  1.0000e-04 Eh/bohr
RMS Gradient             TolRMSG  ....  3.0000e-05 Eh/bohr
Max. Displacement        TolMAXD  ....  1.0000e-03 bohr
RMS Displacement         TolRMSD  ....  6.0000e-04 bohr
Strict Convergence                ....  False
------------------------------------------------------------------------------
                        ORCA OPTIMIZATION COORDINATE SETUP
------------------------------------------------------------------------------

The optimization will be done in new redundant internal coordinates
Making redundant internal coordinates   ...  (new redundants) done
Evaluating the initial hessian          ...  (Almloef) done
Evaluating the coordinates              ...  done
Calculating the B-matrix                .... done
Calculating the G-matrix                .... done
Diagonalizing the G-matrix              .... done
The first mode is                       ....   52
The number of degrees of freedom        ....   48

    -----------------------------------------------------------------
                    Redundant Internal Coordinates


    -----------------------------------------------------------------
         Definition                    Initial Value    Approx d2E/dq
    -----------------------------------------------------------------
      1. B(C   1,C   0)                  1.3848         0.636890   
      2. B(C   2,C   1)                  1.4027         0.596319   
      3. B(C   3,C   2)                  1.4054         0.590425   
      4. B(C   4,C   3)                  1.3808         0.646318   
      5. B(C   5,C   4)                  1.3968         0.609460   
      6. B(C   5,C   0)                  1.3914         0.621503   
      7. B(H   6,C   0)                  1.0815         0.371582   
      8. B(H   7,C   5)                  1.0820         0.370832   
      9. B(H   8,C   1)                  1.0826         0.370038   
     10. B(H   9,C   3)                  1.0829         0.369548   
     11. B(H  10,C   4)                  1.0817         0.371297   
     12. B(C  11,C   2)                  1.4399         0.520179   
     13. B(N  12,C  11)                  1.3605         0.623753   
     14. B(H  13,C  11)                  1.0835         0.368823   
     15. B(H  15,N  12)                  1.0142         0.426016   
     16. B(H  16,N  12)                  1.0140         0.426373   
     17. B(Cu 17,H  14)                  1.5057         0.791199   
     18. B(Cu 17,N  12)                  2.0839         0.442444   
     19. B(Cu 17,C  11)                  2.0447         0.570538   
     20. A(C   5,C   0,H   6)          120.2850         0.354936   
     21. A(C   1,C   0,H   6)          119.8937         0.356412   
     22. A(C   1,C   0,C   5)          119.8201         0.436362   
     23. A(C   0,C   1,H   8)          120.5827         0.356160   
     24. A(C   2,C   1,H   8)          119.4438         0.352210   
     25. A(C   0,C   1,C   2)          119.9601         0.433125   
     26. A(C   3,C   2,C  11)          123.1061         0.416976   
     27. A(C   1,C   2,C  11)          116.9974         0.417714   
     28. A(C   1,C   2,C   3)          119.8565         0.427275   
     29. A(C   2,C   3,C   4)          119.6998         0.433496   
     30. A(C   2,C   3,H   9)          120.8558         0.351540   
     31. A(C   4,C   3,H   9)          119.4252         0.356970   
     32. A(C   3,C   4,C   5)          120.0898         0.435979   
     33. A(C   3,C   4,H  10)          119.8434         0.357257   
     34. A(C   5,C   4,H  10)          120.0669         0.353715   
     35. A(C   0,C   5,C   4)          120.4725         0.432918   
     36. A(C   4,C   5,H   7)          119.6551         0.353640   
     37. A(C   0,C   5,H   7)          119.8711         0.354815   
     38. A(H  13,C  11,Cu 17)          100.4806         0.389738   
     39. A(N  12,C  11,Cu 17)           72.3277         0.477409   
     40. A(C   2,C  11,Cu 17)          111.1164         0.464862   
     41. A(N  12,C  11,H  13)          115.3968         0.352519   
     42. A(C   2,C  11,H  13)          118.2855         0.344007   
     43. A(C   2,C  11,N  12)          124.0682         0.418345   
     44. A(H  16,N  12,Cu 17)          116.5149         0.377282   
     45. A(H  15,N  12,Cu 17)          109.6428         0.377228   
     46. A(C  11,N  12,Cu 17)           69.2086         0.453549   
     47. A(H  15,N  12,H  16)          114.7039         0.301791   
     48. A(C  11,N  12,H  16)          119.7995         0.358137   
     49. A(C  11,N  12,H  15)          118.2954         0.358086   
     50. A(C  11,Cu 17,N  12)           38.4637         0.505038   
     51. A(N  12,Cu 17,H  14)          149.5492         0.495333   
     52. A(C  11,Cu 17,H  14)          111.1803         0.521928   
     53. D(C   2,C   1,C   0,C   5)     -1.4654         0.028164   
     54. D(C   2,C   1,C   0,H   6)    178.1324         0.028164   
     55. D(H   8,C   1,C   0,C   5)    179.8748         0.028164   
     56. D(H   8,C   1,C   0,H   6)     -0.5275         0.028164   
     57. D(C   3,C   2,C   1,C   0)      3.5219         0.024498   
     58. D(C  11,C   2,C   1,H   8)      4.4269         0.024498   
     59. D(C  11,C   2,C   1,C   0)   -174.2483         0.024498   
     60. D(C   3,C   2,C   1,H   8)   -177.8029         0.024498   
     61. D(H   9,C   3,C   2,C  11)     -6.8254         0.023992   
     62. D(H   9,C   3,C   2,C   1)    175.5465         0.023992   
     63. D(C   4,C   3,C   2,C  11)    174.7803         0.023992   
     64. D(C   4,C   3,C   2,C   1)     -2.8478         0.023992   
     65. D(C   5,C   4,C   3,H   9)   -178.2834         0.029062   
     66. D(H  10,C   4,C   3,C   2)   -179.8939         0.029062   
     67. D(C   5,C   4,C   3,C   2)      0.1340         0.029062   
     68. D(H  10,C   4,C   3,H   9)      1.6887         0.029062   
     69. D(H   7,C   5,C   4,H  10)      1.5581         0.025651   
     70. D(C   0,C   5,C   4,H  10)   -178.0326         0.025651   
     71. D(C   0,C   5,C   4,C   3)      1.9395         0.025651   
     72. D(H   7,C   5,C   0,H   6)     -0.4520         0.026736   
     73. D(H   7,C   5,C   4,C   3)   -178.4698         0.025651   
     74. D(C   4,C   5,C   0,H   6)    179.1378         0.026736   
     75. D(C   4,C   5,C   0,C   1)     -1.2660         0.026736   
     76. D(H   7,C   5,C   0,C   1)    179.1442         0.026736   
     77. D(Cu 17,C  11,C   2,C   3)     64.7596         0.020011   
     78. D(Cu 17,C  11,C   2,C   1)   -117.5491         0.020011   
     79. D(H  13,C  11,C   2,C   3)   -179.8200         0.020011   
     80. D(H  13,C  11,C   2,C   1)     -2.1287         0.020011   
     81. D(N  12,C  11,C   2,C   3)    -17.6733         0.020011   
     82. D(N  12,C  11,C   2,C   1)    160.0180         0.020011   
     83. D(H  15,N  12,C  11,C   2)   -154.2864         0.036887   
     84. D(Cu 17,N  12,C  11,H  13)    -93.4439         0.036887   
     85. D(Cu 17,N  12,C  11,C   2)    103.9450         0.036887   
     86. D(H  16,N  12,C  11,Cu 17)   -109.4416         0.036887   
     87. D(H  16,N  12,C  11,H  13)    157.1145         0.036887   
     88. D(H  16,N  12,C  11,C   2)     -5.4966         0.036887   
     89. D(H  15,N  12,C  11,Cu 17)    101.7686         0.036887   
     90. D(H  15,N  12,C  11,H  13)      8.3247         0.036887   
     91. D(H  14,Cu 17,N  12,H  16)    119.5410         0.002392   
     92. D(H  14,Cu 17,N  12,C  11)      5.6725         0.002392   
     93. D(C  11,Cu 17,N  12,H  16)    113.8684         0.002392   
     94. D(C  11,Cu 17,N  12,H  15)   -113.7561         0.002392   
     95. D(H  14,Cu 17,C  11,H  13)    -63.4157         0.002822   
     96. D(H  14,Cu 17,C  11,N  12)   -176.9204         0.002822   
     97. D(H  14,Cu 17,C  11,C   2)     62.6021         0.002822   
     98. D(H  14,Cu 17,N  12,H  15)   -108.0835         0.002392   
     99. D(N  12,Cu 17,C  11,H  13)    113.5047         0.002822   
    100. D(N  12,Cu 17,C  11,C   2)   -120.4774         0.002822   
    -----------------------------------------------------------------

Number of atoms                         .... 18
Number of degrees of freedom            .... 100

         *************************************************************
         *                GEOMETRY OPTIMIZATION CYCLE   1            *
         *************************************************************
---------------------------------
CARTESIAN COORDINATES (ANGSTROEM)
---------------------------------
  C     -2.989703    1.855579    1.650714
  C     -1.871004    2.647538    1.453405
  C     -0.672238    2.344022    2.115524
  C     -0.588730    1.194343    2.919528
  C     -1.705672    0.402742    3.099434
  C     -2.911704    0.742698    2.482287
  H     -3.921553    2.108024    1.163400
  H     -3.788876    0.131273    2.648014
  H     -1.917269    3.515062    0.807447
  H      0.347829    0.905603    3.380251
  H     -1.644460   -0.481685    3.719145
  C      0.412335    3.279109    1.965275
  N      1.473041    3.358628    2.813460
  H      0.261760    4.141848    1.327351
  H      1.661421    1.965459   -0.355716
  H      1.963053    4.243440    2.888854
  H      1.489489    2.792094    3.654290
  Cu     2.013770    2.407290    1.039936

----------------------------
CARTESIAN COORDINATES (A.U.)
----------------------------
  NO LB      ZA    FRAG     MASS         X           Y           Z
   0 C     6.0000    0    12.011   -5.649721    3.506536    3.119398
   1 C     6.0000    0    12.011   -3.535685    5.003123    2.746537
   2 C     6.0000    0    12.011   -1.270347    4.429559    3.997762
   3 C     6.0000    0    12.011   -1.112539    2.256981    5.517108
   4 C     6.0000    0    12.011   -3.223253    0.761072    5.857082
   5 C     6.0000    0    12.011   -5.502322    1.403495    4.690842
   6 H     1.0000    0     1.008   -7.410661    3.983588    2.198507
   7 H     1.0000    0     1.008   -7.159938    0.248070    5.004021
   8 H     1.0000    0     1.008   -3.623114    6.642505    1.525853
   9 H     1.0000    0     1.008    0.657302    1.711342    6.387748
  10 H     1.0000    0     1.008   -3.107578   -0.910252    7.028165
  11 C     6.0000    0    12.011    0.779200    6.196618    3.713832
  12 N     7.0000    0    14.007    2.783645    6.346886    5.316668
  13 H     1.0000    0     1.008    0.494654    7.826959    2.508331
  14 H     1.0000    0     1.008    3.139632    3.714178   -0.672205
  15 H     1.0000    0     1.008    3.709632    8.018940    5.459142
  16 H     1.0000    0     1.008    2.814727    5.276293    6.905607
  17 Cu   29.0000    0    63.550    3.805475    4.549118    1.965194

--------------------------------
INTERNAL COORDINATES (ANGSTROEM)
--------------------------------
 C      0   0   0     0.000000000000     0.00000000     0.00000000
 C      1   0   0     1.384781384365     0.00000000     0.00000000
 C      2   1   0     1.402698606491   119.96007102     0.00000000
 C      3   2   1     1.405402444785   119.85653421     3.52191972
 C      4   3   2     1.380781218809   119.69980370   357.15224719
 C      1   2   3     1.391438772094   119.82011239   358.53461592
 H      1   2   3     1.081455839212   119.89365034   178.13236758
 H      6   1   2     1.082006192772   119.87111899   179.14415276
 H      2   1   3     1.082589456745   120.58272007   181.34014592
 H      4   3   2     1.082949804929   120.85577125   175.54649372
 H      5   4   3     1.081664867876   119.84336828   180.10610475
 C      3   2   1     1.439883118409   116.99735471   185.75170596
 N     12   3   2     1.360455037465   124.06815304   160.01804068
 H     12   3   2     1.083484433687   118.28553076   357.87133227
 H     12   3   2     2.944977556709    96.43262098   267.66194507
 H     13  12   3     1.014243037249   118.29542382   205.71360505
 H     13  12   3     1.014014961559   119.79949064   354.50343599
 Cu    15  12   3     1.505724787951    40.34649835   236.45605126

---------------------------
INTERNAL COORDINATES (A.U.)
---------------------------
 C      0   0   0     0.000000000000     0.00000000     0.00000000
 C      1   0   0     2.616857571802     0.00000000     0.00000000
 C      2   1   0     2.650716214702   119.96007102     0.00000000
 C      3   2   1     2.655825728587   119.85653421     3.52191972
 C      4   3   2     2.609298354411   119.69980370   357.15224719
 C      1   2   3     2.629438211377   119.82011239   358.53461592
 H      1   2   3     2.043655362040   119.89365034   178.13236758
 H      6   1   2     2.044695379546   119.87111899   179.14415276
 H      2   1   3     2.045797588718   120.58272007   181.34014592
 H      4   3   2     2.046478548099   120.85577125   175.54649372
 H      5   4   3     2.044050368970   119.84336828   180.10610475
 C      3   2   1     2.720984758649   116.99735471   185.75170596
 N     12   3   2     2.570887438323   124.06815304   160.01804068
 H     12   3   2     2.047488850035   118.28553076   357.87133227
 H     12   3   2     5.565201052724    96.43262098   267.66194507
 H     13  12   3     1.916641573637   118.29542382   205.71360505
 H     13  12   3     1.916210573046   119.79949064   354.50343599
 Cu    15  12   3     2.845407482285    40.34649835   236.45605126

---------------------
BASIS SET INFORMATION
---------------------
There are 4 groups of distinct atoms

 Group   1 Type C   : 11s6p2d1f contracted to 5s3p2d1f pattern {62111/411/11/1}
 Group   2 Type H   : 5s1p contracted to 3s1p pattern {311/1}
 Group   3 Type N   : 11s6p2d1f contracted to 5s3p2d1f pattern {62111/411/11/1}
 Group   4 Type Cu  : 17s11p7d1f contracted to 6s4p4d1f pattern {842111/6311/4111/1}

Atom   0C    basis set group =>   1
Atom   1C    basis set group =>   1
Atom   2C    basis set group =>   1
Atom   3C    basis set group =>   1
Atom   4C    basis set group =>   1
Atom   5C    basis set group =>   1
Atom   6H    basis set group =>   2
Atom   7H    basis set group =>   2
Atom   8H    basis set group =>   2
Atom   9H    basis set group =>   2
Atom  10H    basis set group =>   2
Atom  11C    basis set group =>   1
Atom  12N    basis set group =>   3
Atom  13H    basis set group =>   2
Atom  14H    basis set group =>   2
Atom  15H    basis set group =>   2
Atom  16H    basis set group =>   2
Atom  17Cu   basis set group =>   4
---------------------------------
AUXILIARY/J BASIS SET INFORMATION
---------------------------------
There are 4 groups of distinct atoms

 Group   1 Type C   : 12s5p4d2f1g contracted to 6s4p3d1f1g pattern {711111/2111/211/2/1}
 Group   2 Type H   : 5s2p1d contracted to 3s1p1d pattern {311/2/1}
 Group   3 Type N   : 12s5p4d2f1g contracted to 6s4p3d1f1g pattern {711111/2111/211/2/1}
 Group   4 Type Cu  : 19s5p5d3f3g contracted to 8s5p4d3f3g pattern {121111111/11111/2111/111/111}

Atom   0C    basis set group =>   1
Atom   1C    basis set group =>   1
Atom   2C    basis set group =>   1
Atom   3C    basis set group =>   1
Atom   4C    basis set group =>   1
Atom   5C    basis set group =>   1
Atom   6H    basis set group =>   2
Atom   7H    basis set group =>   2
Atom   8H    basis set group =>   2
Atom   9H    basis set group =>   2
Atom  10H    basis set group =>   2
Atom  11C    basis set group =>   1
Atom  12N    basis set group =>   3
Atom  13H    basis set group =>   2
Atom  14H    basis set group =>   2
Atom  15H    basis set group =>   2
Atom  16H    basis set group =>   2
Atom  17Cu   basis set group =>   4


           ************************************************************
           *        Program running with 32 parallel MPI-processes    *
           *              working on a common directory               *
           ************************************************************
------------------------------------------------------------------------------
                           ORCA GTO INTEGRAL CALCULATION
                           -- RI-GTO INTEGRALS CHOSEN --
------------------------------------------------------------------------------
------------------------------------------------------------------------------
                   ___                                                        
                  /   \      - P O W E R E D   B Y -                         
                 /     \                                                     
                 |  |  |   _    _      __       _____    __    __             
                 |  |  |  | |  | |    /  \     |  _  \  |  |  /  |          
                  \  \/   | |  | |   /    \    | | | |  |  | /  /          
                 / \  \   | |__| |  /  /\  \   | |_| |  |  |/  /          
                |  |  |   |  __  | /  /__\  \  |    /   |      \           
                |  |  |   | |  | | |   __   |  |    \   |  |\   \          
                \     /   | |  | | |  |  |  |  | |\  \  |  | \   \       
                 \___/    |_|  |_| |__|  |__|  |_| \__\ |__|  \__/        
                                                                              
                      - O R C A' S   B I G   F R I E N D -                    
                                      &                                       
                       - I N T E G R A L  F E E D E R -                       
                                                                              
 v1 FN, 2020, v2 2021                                                         
------------------------------------------------------------------------------


Reading SHARK input file orca.SHARKINP.tmp ... ok
----------------------
SHARK INTEGRAL PACKAGE
----------------------

Number of atoms                             ...     18
Number of basis functions                   ...    347
Number of shells                            ...    139
Maximum angular momentum                    ...      3
Integral batch strategy                     ... SHARK/LIBINT Hybrid
RI-J (if used) integral strategy            ... SPLIT-RIJ (Revised 2003 algorithm where possible)
Printlevel                                  ...      1
Contraction scheme used                     ... SEGMENTED contraction
Coulomb Range Separation                    ... NOT USED
Exchange Range Separation                   ... NOT USED
Finite Nucleus Model                        ... NOT USED
Auxiliary Coulomb fitting basis             ... AVAILABLE
   # of basis functions in Aux-J            ...    582
   # of shells in Aux-J                     ...    188
   Maximum angular momentum in Aux-J        ...      4
Auxiliary J/K fitting basis                 ... NOT available
Auxiliary Correlation fitting basis         ... NOT available
Auxiliary 'external' fitting basis          ... NOT available
Integral threshold                          ...     2.500000e-11
Primitive cut-off                           ...     2.500000e-12
Primitive pair pre-selection threshold      ...     2.500000e-12

Calculating pre-screening integrals         ... done (  0.2 sec) Dimension = 139
Organizing shell pair data                  ... done (  0.7 sec)
Shell pair information
Total number of shell pairs                 ...      9730
Shell pairs after pre-screening             ...      8612
Total number of primitive shell pairs       ...     31637
Primitive shell pairs kept                  ...     20200
          la=0 lb=0:   2293 shell pairs
          la=1 lb=0:   2395 shell pairs
          la=1 lb=1:    646 shell pairs
          la=2 lb=0:   1315 shell pairs
          la=2 lb=1:    688 shell pairs
          la=2 lb=2:    198 shell pairs
          la=3 lb=0:    572 shell pairs
          la=3 lb=1:    300 shell pairs
          la=3 lb=2:    165 shell pairs
          la=3 lb=3:     40 shell pairs

Calculating one electron integrals          ... done (  0.3 sec)
Calculating RI/J V-Matrix + Cholesky decomp.... done (  2.6 sec)
Calculating Nuclear repulsion               ... done (  0.0 sec) ENN=    617.266091686424 Eh

SHARK setup successfully completed in   6.1 seconds

Maximum memory used throughout the entire GTOINT-calculation: 25.5 MB


           ************************************************************
           *        Program running with 32 parallel MPI-processes    *
           *              working on a common directory               *
           ************************************************************
-------------------------------------------------------------------------------
                                 ORCA SCF
-------------------------------------------------------------------------------

------------
SCF SETTINGS
------------
Hamiltonian:
 Density Functional     Method          .... DFT(GTOs)
 Exchange Functional    Exchange        .... B88
   X-Alpha parameter    XAlpha          ....  0.666667
   Becke's b parameter  XBeta           ....  0.004200
 Correlation Functional Correlation     .... LYP
 LDA part of GGA corr.  LDAOpt          .... VWN-5
 Gradients option       PostSCFGGA      .... off
 Hybrid DFT is turned on
   Fraction HF Exchange ScalHFX         ....  0.200000
   Scaling of DF-GGA-X  ScalDFX         ....  0.720000
   Scaling of DF-GGA-C  ScalDFC         ....  0.810000
   Scaling of DF-LDA-C  ScalLDAC        ....  1.000000
   Perturbative correction              ....  0.000000
   Density functional embedding theory  .... OFF
   NL short-range parameter             ....  4.800000
 RI-approximation to the Coulomb term is turned on
   Number of AuxJ basis functions       .... 582
   RIJ-COSX (HFX calculated with COS-X)).... on


General Settings:
 Integral files         IntName         .... orca
 Hartree-Fock type      HFTyp           .... RHF
 Total Charge           Charge          ....    1
 Multiplicity           Mult            ....    1
 Number of Electrons    NEL             ....   86
 Basis Dimension        Dim             ....  347
 Nuclear Repulsion      ENuc            ....    617.2660916864 Eh

Convergence Acceleration:
 DIIS                   CNVDIIS         .... on
   Start iteration      DIISMaxIt       ....    12
   Startup error        DIISStart       ....  0.200000
   # of expansion vecs  DIISMaxEq       ....     5
   Bias factor          DIISBfac        ....   1.050
   Max. coefficient     DIISMaxC        ....  10.000
 Trust-Rad. Augm. Hess. CNVTRAH         .... auto
   Auto Start mean grad. ratio tolernc. ....  1.125000
   Auto Start start iteration           ....    20
   Auto Start num. interpolation iter.  ....    10
   Max. Number of Micro iterations      ....    16
   Max. Number of Macro iterations      .... Maxiter - #DIIS iter
   Number of Davidson start vectors     ....     2
   Converg. threshold I  (grad. norm)   ....   1.000e-05
   Converg. threshold II (energy diff.) ....   1.000e-08
   Grad. Scal. Fac. for Micro threshold ....   0.100
   Minimum threshold for Micro iter.    ....   0.010
   NR start threshold (gradient norm)   ....   0.001
   Initial trust radius                 ....   0.400
   Minimum AH scaling param. (alpha)    ....   1.000
   Maximum AH scaling param. (alpha)    .... 1000.000
   Orbital update algorithm             .... Taylor
   White noise on init. David. guess    .... on
   Maximum white noise                  ....   0.010
   Quad. conv. algorithm                .... NR
 SOSCF                  CNVSOSCF        .... off
 Level Shifting         CNVShift        .... on
   Level shift para.    LevelShift      ....    0.2500
   Turn off err/grad.   ShiftErr        ....    0.0010
 Zerner damping         CNVZerner       .... off
 Static damping         CNVDamp         .... on
   Fraction old density DampFac         ....    0.7000
   Max. Damping (<1)    DampMax         ....    0.9800
   Min. Damping (>=0)   DampMin         ....    0.0000
   Turn off err/grad.   DampErr         ....    0.1000
 Fernandez-Rico         CNVRico         .... off

SCF Procedure:
 Maximum # iterations   MaxIter         ....  2000
 SCF integral mode      SCFMode         .... Direct
   Integral package                     .... SHARK and LIBINT hybrid scheme
 Reset frequency        DirectResetFreq ....    15
 Integral Threshold     Thresh          ....  2.500e-11 Eh
 Primitive CutOff       TCut            ....  2.500e-12 Eh

Convergence Tolerance:
 Convergence Check Mode ConvCheckMode   .... Total+1el-Energy
 Convergence forced     ConvForced      .... 0
 Energy Change          TolE            ....  1.000e-08 Eh
 1-El. energy change                    ....  1.000e-05 Eh
 DIIS Error             TolErr          ....  5.000e-07


Diagonalization of the overlap matrix:
Smallest eigenvalue                        ... 8.908e-06
Time for diagonalization                   ...    0.159 sec
Threshold for overlap eigenvalues          ... 1.000e-08
Number of eigenvalues below threshold      ... 0
Time for construction of square roots      ...    0.571 sec
Total time needed                          ...    1.106 sec

Time for model grid setup =    1.837 sec

------------------------------
INITIAL GUESS: MODEL POTENTIAL
------------------------------
Loading Hartree-Fock densities                     ... done
Calculating cut-offs                               ... done
Initializing the effective Hamiltonian             ... done
Setting up the integral package (SHARK)            ... done
Starting the Coulomb interaction                   ... done (   2.6 sec)
Reading the grid                                   ... done
Mapping shells                                     ... done
Starting the XC term evaluation                    ... done (   0.3 sec)
  promolecular density results
     # of electrons  =     86.991266950
     EX              =   -111.106983320
     EC              =     -3.307524245
     EX+EC           =   -114.414507565
Transforming the Hamiltonian                       ... done (   1.6 sec)
Diagonalizing the Hamiltonian                      ... done (   1.5 sec)
Back transforming the eigenvectors                 ... done (   0.1 sec)
Now organizing SCF variables                       ... done
                      ------------------
                      INITIAL GUESS DONE (   9.1 sec)
                      ------------------
-------------------
DFT GRID GENERATION
-------------------

General Integration Accuracy     IntAcc      ... 4.388
Radial Grid Type                 RadialGrid  ... OptM3 with GC (2021)
Angular Grid (max. ang.)         AngularGrid ... 4 (Lebedev-302)
Angular grid pruning method      GridPruning ... 4 (adaptive)
Weight generation scheme         WeightScheme... Becke
Basis function cutoff            BFCut       ... 1.0000e-11
Integration weight cutoff        WCut        ... 1.0000e-14
Angular grids for H and He will be reduced by one unit
Partially contracted basis set               ... off
Rotationally invariant grid construction     ... off

Total number of grid points                  ...    88139
Total number of batches                      ...     1386
Average number of points per batch           ...       63
Average number of grid points per atom       ...     4897
Time for grid setup =    4.023 sec

--------------------
COSX GRID GENERATION
--------------------

GRIDX 1
-------
General Integration Accuracy     IntAcc      ... 3.816
Radial Grid Type                 RadialGrid  ... OptM3 with GC (2021)
Angular Grid (max. ang.)         AngularGrid ... 1 (Lebedev-50)
Angular grid pruning method      GridPruning ... 4 (adaptive)
Weight generation scheme         WeightScheme... Becke
Basis function cutoff            BFCut       ... 1.0000e-11
Integration weight cutoff        WCut        ... 1.0000e-14
Angular grids for H and He will be reduced by one unit
Partially contracted basis set               ... on
Rotationally invariant grid construction     ... off

Total number of grid points                  ...    11061
Total number of batches                      ...      178
Average number of points per batch           ...       62
Average number of grid points per atom       ...      614
UseSFitting                                  ... on

GRIDX 2
-------
General Integration Accuracy     IntAcc      ... 4.020
Radial Grid Type                 RadialGrid  ... OptM3 with GC (2021)
Angular Grid (max. ang.)         AngularGrid ... 2 (Lebedev-110)
Angular grid pruning method      GridPruning ... 4 (adaptive)
Weight generation scheme         WeightScheme... Becke
Basis function cutoff            BFCut       ... 1.0000e-11
Integration weight cutoff        WCut        ... 1.0000e-14
Angular grids for H and He will be reduced by one unit
Partially contracted basis set               ... on
Rotationally invariant grid construction     ... off

Total number of grid points                  ...    23756
Total number of batches                      ...      379
Average number of points per batch           ...       62
Average number of grid points per atom       ...     1320
UseSFitting                                  ... on

GRIDX 3
-------
General Integration Accuracy     IntAcc      ... 4.338
Radial Grid Type                 RadialGrid  ... OptM3 with GC (2021)
Angular Grid (max. ang.)         AngularGrid ... 3 (Lebedev-194)
Angular grid pruning method      GridPruning ... 4 (adaptive)
Weight generation scheme         WeightScheme... Becke
Basis function cutoff            BFCut       ... 1.0000e-11
Integration weight cutoff        WCut        ... 1.0000e-14
Angular grids for H and He will be reduced by one unit
Partially contracted basis set               ... on
Rotationally invariant grid construction     ... off

Total number of grid points                  ...    52273
Total number of batches                      ...      824
Average number of points per batch           ...       63
Average number of grid points per atom       ...     2904
UseSFitting                                  ... on

Time for X-Grid setup             =    8.470 sec


--------------------
CPCM SOLVATION MODEL
--------------------
CPCM parameters:
  Epsilon                                         ...       6.0200
  Refrac                                          ...       1.3723
  Rsolv                                           ...       1.3000
  Surface type                                    ... GAUSSIAN VDW
  Epsilon function type                           ...         CPCM
Radii:
 Radius for C  used is    3.8550 Bohr (=   2.0400 Ang.)
 Radius for H  used is    2.4944 Bohr (=   1.3200 Ang.)
 Radius for N  used is    3.5149 Bohr (=   1.8600 Ang.)
 Radius for Cu used is    3.1747 Bohr (=   1.6800 Ang.)
Calculating surface                               ...        done! (  0.0s)
GEPOL surface points                              ...         1056
GEPOL Volume                                      ...    1076.9797
GEPOL Surface-area                                ...     620.9872
Calculating surface distance matrix               ...        done! (  0.0s)
Performing Cholesky decomposition & store         ...        done! (  5.7s)
Overall time for CPCM initialization              ...                 5.7s
--------------
SCF ITERATIONS
--------------
ITER       Energy         Delta-E        Max-DP      RMS-DP      [F,P]     Damp
               ***  Starting incremental Fock matrix formation  ***
  0  -1966.9262377122   0.000000000000 0.03150176  0.00077408  0.1781798 0.7000
  1  -1967.0066814178  -0.080443705603 0.02356412  0.00059590  0.0824428 0.7000
                               ***Turning on DIIS***
  2  -1967.0411464084  -0.034464990568 0.07067305  0.00127947  0.0436770 0.0000
  3  -1967.0928718652  -0.051725456874 0.02010548  0.00034933  0.0383811 0.0000
  4  -1967.1055153521  -0.012643486830 0.00858520  0.00015534  0.0073730 0.0000
  5  -1967.1060964665  -0.000581114396 0.00541470  0.00005657  0.0041981 0.0000
  6  -1967.1061495635  -0.000053097034 0.00138372  0.00003205  0.0032488 0.0000
  7  -1967.1061598346  -0.000010271108 0.00172426  0.00001508  0.0030344 0.0000
  8  -1967.1061705029  -0.000010668277 0.00193916  0.00001691  0.0002635 0.0000
               *** Restarting incremental Fock matrix formation ***
                                   *** Resetting DIIS ***
  9  -1967.1061744431  -0.000003940222 0.00058301  0.00001190  0.0004265 0.0000
 10  -1967.1061714127   0.000003030389 0.00034392  0.00000411  0.0017900 0.0000
 11  -1967.1061745651  -0.000003152337 0.00028268  0.00000339  0.0003521 0.0000
 12  -1967.1061749148  -0.000000349752 0.00003903  0.00000089  0.0000906 0.0000
 13  -1967.1061749256  -0.000000010748 0.00010494  0.00000160  0.0000492 0.0000
 14  -1967.1061749379  -0.000000012356 0.00002849  0.00000054  0.0000074 0.0000
 15  -1967.1061749454  -0.000000007508 0.00001977  0.00000056  0.0000096 0.0000
 16  -1967.1061749315   0.000000013962 0.00002925  0.00000074  0.0000012 0.0000
                            ***DIIS convergence achieved***

               *****************************************************
               *                     SUCCESS                       *
               *           SCF CONVERGED AFTER  17 CYCLES          *
               *****************************************************

Old exchange energy                            =    -22.277520675 Eh
New exchange energy                            =    -22.277504532 Eh
Exchange energy change after final integration =      0.000016144 Eh
Total energy after final integration           =  -1967.106158796 Eh
Final COS-X integration done in                =     3.064 sec

----------------
TOTAL SCF ENERGY
----------------

Total Energy       :        -1967.10615880 Eh          -53527.67988 eV

Components:
Nuclear Repulsion  :          617.26609169 Eh           16796.66428 eV
Electronic Energy  :        -2584.37225048 Eh          -70324.34416 eV
One Electron Energy:        -3937.26036179 Eh         -107138.30125 eV
Two Electron Energy:         1352.88811131 Eh           36813.95709 eV
Max COSX asymmetry :            0.00000236 Eh               0.00006 eV
CPCM Dielectric    :           -0.09817776 Eh              -2.67155 eV

Virial components:
Potential Energy   :        -3930.29625963 Eh         -106948.79840 eV
Kinetic Energy     :         1963.19010084 Eh           53421.11852 eV
Virial Ratio       :            2.00199474


DFT components:
N(Alpha)           :       43.000012165109 electrons
N(Beta)            :       43.000012165109 electrons
N(Total)           :       86.000024330219 electrons
E(X)               :      -88.821070075927 Eh       
E(C)               :       -3.854043045935 Eh       
E(XC)              :      -92.675113121862 Eh       
DFET-embed. en.    :        0.000000000000 Eh       
CPCM Solvation Model Properties:
Surface-charge          :           -1.03583995
Charge-correction       :            0.00435166 Eh               0.11841 eV
Free-energy (cav+disp)  :  This term is not implemented in the current solvation scheme

---------------
SCF CONVERGENCE
---------------

  Last Energy change         ...   -8.6416e-09  Tolerance :   1.0000e-08
  Last MAX-Density change    ...    0.0000e+00  Tolerance :   1.0000e-07
  Last RMS-Density change    ...    0.0000e+00  Tolerance :   5.0000e-09
  Last DIIS Error            ...    8.0768e-07  Tolerance :   5.0000e-07

             **** THE GBW FILE WAS UPDATED (orca.gbw) ****
             **** DENSITY orca.scfp WAS UPDATED ****
             **** ENERGY FILE WAS UPDATED (orca.en.tmp) ****
             **** THE GBW FILE WAS UPDATED (orca.gbw) ****
             **** DENSITY orca.scfp WAS UPDATED ****
----------------
ORBITAL ENERGIES
----------------

  NO   OCC          E(Eh)            E(eV) 
   0   2.0000    -323.082684     -8791.5268 
   1   2.0000     -38.883947     -1058.0860 
   2   2.0000     -34.088665      -927.5997 
   3   2.0000     -34.088235      -927.5880 
   4   2.0000     -34.087093      -927.5570 
   5   2.0000     -14.437272      -392.8582 
   6   2.0000     -10.317444      -280.7519 
   7   2.0000     -10.240353      -278.6542 
   8   2.0000     -10.224478      -278.2222 
   9   2.0000     -10.223923      -278.2071 
  10   2.0000     -10.218549      -278.0609 
  11   2.0000     -10.213847      -277.9329 
  12   2.0000     -10.211954      -277.8814 
  13   2.0000      -4.369277      -118.8941 
  14   2.0000      -2.868263       -78.0494 
  15   2.0000      -2.864843       -77.9563 
  16   2.0000      -2.852021       -77.6074 
  17   2.0000      -1.026242       -27.9255 
  18   2.0000      -0.907683       -24.6993 
  19   2.0000      -0.821595       -22.3567 
  20   2.0000      -0.793936       -21.6041 
  21   2.0000      -0.732640       -19.9361 
  22   2.0000      -0.660877       -17.9834 
  23   2.0000      -0.650016       -17.6878 
  24   2.0000      -0.612328       -16.6623 
  25   2.0000      -0.581544       -15.8246 
  26   2.0000      -0.535329       -14.5670 
  27   2.0000      -0.507285       -13.8039 
  28   2.0000      -0.489943       -13.3320 
  29   2.0000      -0.485472       -13.2104 
  30   2.0000      -0.465784       -12.6746 
  31   2.0000      -0.460809       -12.5393 
  32   2.0000      -0.416699       -11.3389 
  33   2.0000      -0.398105       -10.8330 
  34   2.0000      -0.387256       -10.5378 
  35   2.0000      -0.380540       -10.3550 
  36   2.0000      -0.354428        -9.6445 
  37   2.0000      -0.348173        -9.4743 
  38   2.0000      -0.345366        -9.3979 
  39   2.0000      -0.339223        -9.2307 
  40   2.0000      -0.315607        -8.5881 
  41   2.0000      -0.301467        -8.2033 
  42   2.0000      -0.275138        -7.4869 
  43   0.0000      -0.144733        -3.9384 
  44   0.0000      -0.054544        -1.4842 
  45   0.0000      -0.036422        -0.9911 
  46   0.0000      -0.032664        -0.8888 
  47   0.0000       0.016525         0.4497 
  48   0.0000       0.021886         0.5956 
  49   0.0000       0.035346         0.9618 
  50   0.0000       0.044401         1.2082 
  51   0.0000       0.065611         1.7854 
  52   0.0000       0.071358         1.9418 
  53   0.0000       0.076018         2.0686 
  54   0.0000       0.089319         2.4305 
  55   0.0000       0.090620         2.4659 
  56   0.0000       0.097443         2.6516 
  57   0.0000       0.107780         2.9328 
  58   0.0000       0.130065         3.5392 
  59   0.0000       0.138591         3.7713 
  60   0.0000       0.147070         4.0020 
  61   0.0000       0.160507         4.3676 
  62   0.0000       0.169806         4.6206 
  63   0.0000       0.177158         4.8207 
  64   0.0000       0.185225         5.0402 
  65   0.0000       0.192230         5.2308 
  66   0.0000       0.200815         5.4644 
  67   0.0000       0.205519         5.5925 
  68   0.0000       0.212370         5.7789 
  69   0.0000       0.218971         5.9585 
  70   0.0000       0.226318         6.1584 
  71   0.0000       0.235951         6.4205 
  72   0.0000       0.243874         6.6361 
  73   0.0000       0.247424         6.7327 
  74   0.0000       0.255979         6.9655 
  75   0.0000       0.266093         7.2407 
  76   0.0000       0.285028         7.7560 
  77   0.0000       0.297331         8.0908 
  78   0.0000       0.300768         8.1843 
  79   0.0000       0.303266         8.2523 
  80   0.0000       0.314340         8.5536 
  81   0.0000       0.325902         8.8682 
  82   0.0000       0.340323         9.2607 
  83   0.0000       0.349575         9.5124 
  84   0.0000       0.350771         9.5450 
  85   0.0000       0.366998         9.9865 
  86   0.0000       0.371876        10.1193 
  87   0.0000       0.383411        10.4331 
  88   0.0000       0.395025        10.7492 
  89   0.0000       0.404109        10.9964 
  90   0.0000       0.412685        11.2297 
  91   0.0000       0.433918        11.8075 
  92   0.0000       0.445936        12.1345 
  93   0.0000       0.448765        12.2115 
  94   0.0000       0.454889        12.3782 
  95   0.0000       0.459769        12.5110 
  96   0.0000       0.466506        12.6943 
  97   0.0000       0.468699        12.7539 
  98   0.0000       0.486457        13.2372 
  99   0.0000       0.495044        13.4708 
 100   0.0000       0.512321        13.9410 
 101   0.0000       0.521551        14.1921 
 102   0.0000       0.550369        14.9763 
 103   0.0000       0.560325        15.2472 
 104   0.0000       0.571962        15.5639 
 105   0.0000       0.585261        15.9257 
 106   0.0000       0.608179        16.5494 
 107   0.0000       0.626672        17.0526 
 108   0.0000       0.639709        17.4074 
 109   0.0000       0.648479        17.6460 
 110   0.0000       0.662119        18.0172 
 111   0.0000       0.671095        18.2614 
 112   0.0000       0.673733        18.3332 
 113   0.0000       0.705014        19.1844 
 114   0.0000       0.706524        19.2255 
 115   0.0000       0.727249        19.7895 
 116   0.0000       0.738823        20.1044 
 117   0.0000       0.773046        21.0356 
 118   0.0000       0.789132        21.4734 
 119   0.0000       0.809122        22.0173 
 120   0.0000       0.826653        22.4944 
 121   0.0000       0.841520        22.8989 
 122   0.0000       0.846176        23.0256 
 123   0.0000       0.866200        23.5705 
 124   0.0000       0.883233        24.0340 
 125   0.0000       0.915690        24.9172 
 126   0.0000       0.928299        25.2603 
 127   0.0000       0.930377        25.3169 
 128   0.0000       0.949559        25.8388 
 129   0.0000       0.968421        26.3521 
 130   0.0000       0.982792        26.7431 
 131   0.0000       0.988347        26.8943 
 132   0.0000       1.013581        27.5809 
 133   0.0000       1.027425        27.9577 
 134   0.0000       1.049080        28.5469 
 135   0.0000       1.081070        29.4174 
 136   0.0000       1.093320        29.7507 
 137   0.0000       1.117893        30.4194 
 138   0.0000       1.127289        30.6751 
 139   0.0000       1.149231        31.2722 
 140   0.0000       1.175681        31.9919 
 141   0.0000       1.187499        32.3135 
 142   0.0000       1.202932        32.7334 
 143   0.0000       1.206415        32.8282 
 144   0.0000       1.212006        32.9804 
 145   0.0000       1.219816        33.1929 
 146   0.0000       1.253385        34.1063 
 147   0.0000       1.273191        34.6453 
 148   0.0000       1.289212        35.0812 
 149   0.0000       1.306866        35.5616 
 150   0.0000       1.323560        36.0159 
 151   0.0000       1.360147        37.0115 
 152   0.0000       1.388512        37.7833 
 153   0.0000       1.400882        38.1199 
 154   0.0000       1.426197        38.8088 
 155   0.0000       1.431059        38.9411 
 156   0.0000       1.442128        39.2423 
 157   0.0000       1.453104        39.5410 
 158   0.0000       1.472102        40.0579 
 159   0.0000       1.490092        40.5475 
 160   0.0000       1.515933        41.2506 
 161   0.0000       1.534524        41.7565 
 162   0.0000       1.544142        42.0182 
 163   0.0000       1.562902        42.5287 
 164   0.0000       1.590075        43.2681 
 165   0.0000       1.599717        43.5305 
 166   0.0000       1.614708        43.9384 
 167   0.0000       1.636215        44.5237 
 168   0.0000       1.648939        44.8699 
 169   0.0000       1.655469        45.0476 
 170   0.0000       1.658233        45.1228 
 171   0.0000       1.675640        45.5965 
 172   0.0000       1.692993        46.0687 
 173   0.0000       1.706590        46.4387 
 174   0.0000       1.734734        47.2045 
 175   0.0000       1.743460        47.4420 
 176   0.0000       1.779694        48.4279 
 177   0.0000       1.803530        49.0765 
 178   0.0000       1.809623        49.2423 
 179   0.0000       1.833154        49.8827 
 180   0.0000       1.858558        50.5739 
 181   0.0000       1.863939        50.7204 
 182   0.0000       1.892251        51.4908 
 183   0.0000       1.930710        52.5373 
 184   0.0000       1.941464        52.8299 
 185   0.0000       1.972002        53.6609 
 186   0.0000       1.984080        53.9896 
 187   0.0000       2.008175        54.6452 
 188   0.0000       2.032007        55.2937 
 189   0.0000       2.045425        55.6588 
 190   0.0000       2.059452        56.0405 
 191   0.0000       2.098875        57.1133 
 192   0.0000       2.117116        57.6096 
 193   0.0000       2.145002        58.3685 
 194   0.0000       2.158106        58.7250 
 195   0.0000       2.167249        58.9738 
 196   0.0000       2.196141        59.7600 
 197   0.0000       2.219687        60.4007 
 198   0.0000       2.242806        61.0299 
 199   0.0000       2.272373        61.8344 
 200   0.0000       2.291834        62.3640 
 201   0.0000       2.340390        63.6852 
 202   0.0000       2.355887        64.1070 
 203   0.0000       2.380476        64.7761 
 204   0.0000       2.398050        65.2543 
 205   0.0000       2.425745        66.0079 
 206   0.0000       2.448798        66.6352 
 207   0.0000       2.465885        67.1001 
 208   0.0000       2.494580        67.8810 
 209   0.0000       2.526039        68.7370 
 210   0.0000       2.534540        68.9683 
 211   0.0000       2.552860        69.4668 
 212   0.0000       2.570003        69.9333 
 213   0.0000       2.572184        69.9927 
 214   0.0000       2.586596        70.3849 
 215   0.0000       2.604719        70.8780 
 216   0.0000       2.629987        71.5656 
 217   0.0000       2.635591        71.7181 
 218   0.0000       2.651598        72.1537 
 219   0.0000       2.655657        72.2641 
 220   0.0000       2.661264        72.4167 
 221   0.0000       2.669759        72.6478 
 222   0.0000       2.704050        73.5809 
 223   0.0000       2.711849        73.7932 
 224   0.0000       2.718560        73.9758 
 225   0.0000       2.731762        74.3350 
 226   0.0000       2.751221        74.8645 
 227   0.0000       2.774751        75.5048 
 228   0.0000       2.792292        75.9821 
 229   0.0000       2.800670        76.2101 
 230   0.0000       2.814544        76.5876 
 231   0.0000       2.816619        76.6441 
 232   0.0000       2.831958        77.0615 
 233   0.0000       2.866543        78.0026 
 234   0.0000       2.874527        78.2198 
 235   0.0000       2.906758        79.0969 
 236   0.0000       2.932737        79.8038 
 237   0.0000       2.937506        79.9336 
 238   0.0000       2.982467        81.1571 
 239   0.0000       2.999833        81.6296 
 240   0.0000       3.013788        82.0094 
 241   0.0000       3.035054        82.5880 
 242   0.0000       3.055783        83.1521 
 243   0.0000       3.077578        83.7452 
 244   0.0000       3.097484        84.2868 
 245   0.0000       3.110556        84.6425 
 246   0.0000       3.124651        85.0261 
 247   0.0000       3.126408        85.0739 
 248   0.0000       3.130385        85.1821 
 249   0.0000       3.139919        85.4415 
 250   0.0000       3.142062        85.4999 
 251   0.0000       3.159381        85.9711 
 252   0.0000       3.191699        86.8505 
 253   0.0000       3.217668        87.5572 
 254   0.0000       3.232472        87.9600 
 255   0.0000       3.263494        88.8042 
 256   0.0000       3.276085        89.1468 
 257   0.0000       3.283474        89.3479 
 258   0.0000       3.304292        89.9144 
 259   0.0000       3.311706        90.1161 
 260   0.0000       3.317983        90.2869 
 261   0.0000       3.335072        90.7519 
 262   0.0000       3.345287        91.0299 
 263   0.0000       3.355290        91.3021 
 264   0.0000       3.376153        91.8698 
 265   0.0000       3.405696        92.6737 
 266   0.0000       3.416425        92.9657 
 267   0.0000       3.449276        93.8596 
 268   0.0000       3.450781        93.9005 
 269   0.0000       3.468385        94.3796 
 270   0.0000       3.509521        95.4989 
 271   0.0000       3.522481        95.8516 
 272   0.0000       3.541828        96.3780 
 273   0.0000       3.583337        97.5075 
 274   0.0000       3.610589        98.2491 
 275   0.0000       3.627716        98.7152 
 276   0.0000       3.640481        99.0625 
 277   0.0000       3.666507        99.7707 
 278   0.0000       3.679809       100.1327 
 279   0.0000       3.708937       100.9253 
 280   0.0000       3.714297       101.0712 
 281   0.0000       3.750347       102.0521 
 282   0.0000       3.771147       102.6181 
 283   0.0000       3.793172       103.2175 
 284   0.0000       3.828581       104.1810 
 285   0.0000       3.864020       105.1453 
 286   0.0000       3.876298       105.4794 
 287   0.0000       3.920319       106.6773 
 288   0.0000       3.934871       107.0733 
 289   0.0000       3.987708       108.5111 
 290   0.0000       4.021112       109.4200 
 291   0.0000       4.048451       110.1640 
 292   0.0000       4.091993       111.3488 
 293   0.0000       4.121064       112.1399 
 294   0.0000       4.137966       112.5998 
 295   0.0000       4.167605       113.4063 
 296   0.0000       4.172002       113.5260 
 297   0.0000       4.184131       113.8560 
 298   0.0000       4.198758       114.2540 
 299   0.0000       4.205512       114.4378 
 300   0.0000       4.235251       115.2471 
 301   0.0000       4.281959       116.5180 
 302   0.0000       4.303427       117.1022 
 303   0.0000       4.338452       118.0553 
 304   0.0000       4.415790       120.1597 
 305   0.0000       4.448593       121.0524 
 306   0.0000       4.470658       121.6528 
 307   0.0000       4.541726       123.5866 
 308   0.0000       4.578902       124.5983 
 309   0.0000       4.628947       125.9601 
 310   0.0000       4.640254       126.2677 
 311   0.0000       4.654661       126.6598 
 312   0.0000       4.688359       127.5767 
 313   0.0000       4.722631       128.5093 
 314   0.0000       4.812158       130.9455 
 315   0.0000       4.831288       131.4660 
 316   0.0000       4.862780       132.3230 
 317   0.0000       4.894730       133.1924 
 318   0.0000       4.966292       135.1397 
 319   0.0000       5.018868       136.5704 
 320   0.0000       5.074781       138.0918 
 321   0.0000       5.129216       139.5731 
 322   0.0000       5.171426       140.7217 
 323   0.0000       5.210252       141.7782 
 324   0.0000       5.231412       142.3540 
 325   0.0000       5.299350       144.2027 
 326   0.0000       5.331190       145.0691 
 327   0.0000       5.360067       145.8548 
 328   0.0000       5.400972       146.9679 
 329   0.0000       5.496451       149.5660 
 330   0.0000       5.657212       153.9406 
 331   0.0000       5.719546       155.6368 
 332   0.0000       5.726993       155.8394 
 333   0.0000       5.737002       156.1118 
 334   0.0000       5.764598       156.8627 
 335   0.0000       5.799167       157.8034 
 336   0.0000       5.816895       158.2858 
 337   0.0000       5.889716       160.2673 
 338   0.0000       5.933018       161.4456 
 339   0.0000      22.009358       598.9051 
 340   0.0000      22.517598       612.7350 
 341   0.0000      22.552601       613.6875 
 342   0.0000      22.633399       615.8861 
 343   0.0000      22.677291       617.0805 
 344   0.0000      22.757298       619.2576 
 345   0.0000      23.164448       630.3367 
 346   0.0000      31.903853       868.1480 

                    ********************************
                    * MULLIKEN POPULATION ANALYSIS *
                    ********************************

-----------------------
MULLIKEN ATOMIC CHARGES
-----------------------
   0 C :   -0.114178
   1 C :   -0.178084
   2 C :    0.202753
   3 C :   -0.197167
   4 C :   -0.128398
   5 C :   -0.094746
   6 H :    0.158335
   7 H :    0.161580
   8 H :    0.160200
   9 H :    0.161259
  10 H :    0.157694
  11 C :   -0.014605
  12 N :   -0.240869
  13 H :    0.198384
  14 H :   -0.154782
  15 H :    0.323219
  16 H :    0.315920
  17 Cu:    0.283486
Sum of atomic charges:    1.0000000

--------------------------------
MULLIKEN REDUCED ORBITAL CHARGES
--------------------------------
  0 C s       :     3.211783  s :     3.211783
      pz      :     0.939477  p :     2.815946
      px      :     0.961683
      py      :     0.914787
      dz2     :     0.011883  d :     0.079187
      dxz     :     0.015918
      dyz     :     0.011971
      dx2y2   :     0.021585
      dxy     :     0.017831
      f0      :     0.000778  f :     0.007261
      f+1     :     0.000336
      f-1     :     0.001377
      f+2     :     0.000867
      f-2     :     0.001514
      f+3     :     0.001571
      f-3     :     0.000818
  1 C s       :     3.267907  s :     3.267907
      pz      :     0.952571  p :     2.820568
      px      :     0.905983
      py      :     0.962014
      dz2     :     0.008823  d :     0.082196
      dxz     :     0.019834
      dyz     :     0.012187
      dx2y2   :     0.023487
      dxy     :     0.017866
      f0      :     0.000616  f :     0.007413
      f+1     :     0.001216
      f-1     :     0.000590
      f+2     :     0.001077
      f-2     :     0.001282
      f+3     :     0.001520
      f-3     :     0.001112
  2 C s       :     3.159919  s :     3.159919
      pz      :     0.957346  p :     2.514932
      px      :     0.708072
      py      :     0.849514
      dz2     :     0.023154  d :     0.112296
      dxz     :     0.018158
      dyz     :     0.015486
      dx2y2   :     0.027545
      dxy     :     0.027953
      f0      :     0.000743  f :     0.010100
      f+1     :     0.001270
      f-1     :     0.001516
      f+2     :     0.001052
      f-2     :     0.001937
      f+3     :     0.001949
      f-3     :     0.001632
  3 C s       :     3.284496  s :     3.284496
      pz      :     0.950080  p :     2.824627
      px      :     0.983644
      py      :     0.890904
      dz2     :     0.011660  d :     0.080721
      dxz     :     0.015872
      dyz     :     0.012355
      dx2y2   :     0.026047
      dxy     :     0.014787
      f0      :     0.000835  f :     0.007322
      f+1     :     0.000281
      f-1     :     0.001367
      f+2     :     0.000868
      f-2     :     0.001488
      f+3     :     0.001611
      f-3     :     0.000872
  4 C s       :     3.221479  s :     3.221479
      pz      :     0.940232  p :     2.819457
      px      :     0.901716
      py      :     0.977509
      dz2     :     0.008531  d :     0.080127
      dxz     :     0.018425
      dyz     :     0.011191
      dx2y2   :     0.024262
      dxy     :     0.017717
      f0      :     0.000685  f :     0.007335
      f+1     :     0.001088
      f-1     :     0.000606
      f+2     :     0.001042
      f-2     :     0.001307
      f+3     :     0.001589
      f-3     :     0.001018
  5 C s       :     3.222565  s :     3.222565
      pz      :     0.897266  p :     2.783220
      px      :     0.961818
      py      :     0.924136
      dz2     :     0.017322  d :     0.081772
      dxz     :     0.014776
      dyz     :     0.010611
      dx2y2   :     0.015148
      dxy     :     0.023914
      f0      :     0.000410  f :     0.007189
      f+1     :     0.001058
      f-1     :     0.001348
      f+2     :     0.000930
      f-2     :     0.001246
      f+3     :     0.001001
      f-3     :     0.001196
  6 H s       :     0.819275  s :     0.819275
      pz      :     0.006308  p :     0.022390
      px      :     0.011683
      py      :     0.004399
  7 H s       :     0.816201  s :     0.816201
      pz      :     0.004218  p :     0.022219
      px      :     0.010784
      py      :     0.007218
  8 H s       :     0.817375  s :     0.817375
      pz      :     0.008010  p :     0.022425
      px      :     0.003629
      py      :     0.010785
  9 H s       :     0.816306  s :     0.816306
      pz      :     0.006169  p :     0.022435
      px      :     0.011410
      py      :     0.004856
 10 H s       :     0.819938  s :     0.819938
      pz      :     0.007694  p :     0.022367
      px      :     0.003555
      py      :     0.011118
 11 C s       :     3.159995  s :     3.159995
      pz      :     0.781120  p :     2.701662
      px      :     0.880614
      py      :     1.039929
      dz2     :     0.016950  d :     0.141674
      dxz     :     0.028497
      dyz     :     0.024049
      dx2y2   :     0.043580
      dxy     :     0.028598
      f0      :     0.001463  f :     0.011274
      f+1     :     0.002070
      f-1     :     0.000512
      f+2     :     0.001921
      f-2     :     0.002224
      f+3     :     0.001616
      f-3     :     0.001468
 12 N s       :     3.416658  s :     3.416658
      pz      :     1.198220  p :     3.785560
      px      :     1.298123
      py      :     1.289217
      dz2     :     0.008351  d :     0.035606
      dxz     :     0.004071
      dyz     :     0.007770
      dx2y2   :     0.006437
      dxy     :     0.008977
      f0      :     0.000257  f :     0.003046
      f+1     :     0.000475
      f-1     :     0.000616
      f+2     :     0.000485
      f-2     :     0.000436
      f+3     :     0.000566
      f-3     :     0.000210
 13 H s       :     0.777879  s :     0.777879
      pz      :     0.007848  p :     0.023737
      px      :     0.004324
      py      :     0.011566
 14 H s       :     1.145581  s :     1.145581
      pz      :     0.005503  p :     0.009201
      px      :     0.001814
      py      :     0.001884
 15 H s       :     0.640362  s :     0.640362
      pz      :     0.006665  p :     0.036419
      px      :     0.011338
      py      :     0.018416
 16 H s       :     0.647035  s :     0.647035
      pz      :     0.018717  p :     0.037045
      px      :     0.007188
      py      :     0.011140
 17 Cus       :     6.776251  s :     6.776251
      pz      :     4.166433  p :    12.258069
      px      :     4.058749
      py      :     4.032887
      dz2     :     1.855797  d :     9.682026
      dxz     :     1.951815
      dyz     :     1.972034
      dx2y2   :     1.956602
      dxy     :     1.945777
      f0      :     0.000042  f :     0.000169
      f+1     :     0.000019
      f-1     :     0.000049
      f+2     :     0.000017
      f-2     :     0.000024
      f+3     :     0.000006
      f-3     :     0.000010


                     *******************************
                     * LOEWDIN POPULATION ANALYSIS *
                     *******************************

----------------------
LOEWDIN ATOMIC CHARGES
----------------------
   0 C :   -0.112063
   1 C :   -0.055797
   2 C :   -0.140252
   3 C :   -0.066304
   4 C :   -0.110254
   5 C :   -0.085420
   6 H :    0.158414
   7 H :    0.158635
   8 H :    0.164492
   9 H :    0.162856
  10 H :    0.158385
  11 C :   -0.138487
  12 N :    0.148411
  13 H :    0.189197
  14 H :   -0.173600
  15 H :    0.226797
  16 H :    0.218744
  17 Cu:    0.296247

-------------------------------
LOEWDIN REDUCED ORBITAL CHARGES
-------------------------------
  0 C s       :     2.764695  s :     2.764695
      pz      :     0.930609  p :     2.929129
      px      :     1.001328
      py      :     0.997192
      dz2     :     0.043151  d :     0.374961
      dxz     :     0.074508
      dyz     :     0.059658
      dx2y2   :     0.103589
      dxy     :     0.094055
      f0      :     0.005046  f :     0.043279
      f+1     :     0.002978
      f-1     :     0.005303
      f+2     :     0.004945
      f-2     :     0.008615
      f+3     :     0.010063
      f-3     :     0.006329
  1 C s       :     2.758068  s :     2.758068
      pz      :     0.897996  p :     2.874947
      px      :     1.025883
      py      :     0.951067
      dz2     :     0.035397  d :     0.379699
      dxz     :     0.081765
      dyz     :     0.056969
      dx2y2   :     0.115784
      dxy     :     0.089786
      f0      :     0.004123  f :     0.043082
      f+1     :     0.007459
      f-1     :     0.001682
      f+2     :     0.004649
      f-2     :     0.007910
      f+3     :     0.009675
      f-3     :     0.007583
  2 C s       :     2.693583  s :     2.693583
      pz      :     0.928580  p :     2.872297
      px      :     0.968070
      py      :     0.975647
      dz2     :     0.084051  d :     0.516055
      dxz     :     0.091902
      dyz     :     0.074261
      dx2y2   :     0.117639
      dxy     :     0.148202
      f0      :     0.005141  f :     0.058317
      f+1     :     0.006711
      f-1     :     0.005764
      f+2     :     0.006561
      f-2     :     0.011645
      f+3     :     0.012583
      f-3     :     0.009911
  3 C s       :     2.755628  s :     2.755628
      pz      :     0.905483  p :     2.891124
      px      :     1.005413
      py      :     0.980228
      dz2     :     0.044366  d :     0.376429
      dxz     :     0.069373
      dyz     :     0.060768
      dx2y2   :     0.112561
      dxy     :     0.089361
      f0      :     0.005165  f :     0.043123
      f+1     :     0.002770
      f-1     :     0.005481
      f+2     :     0.004745
      f-2     :     0.008059
      f+3     :     0.010411
      f-3     :     0.006493
  4 C s       :     2.765027  s :     2.765027
      pz      :     0.913059  p :     2.924516
      px      :     1.050261
      py      :     0.961195
      dz2     :     0.034555  d :     0.377347
      dxz     :     0.076810
      dyz     :     0.053303
      dx2y2   :     0.122155
      dxy     :     0.090524
      f0      :     0.004135  f :     0.043364
      f+1     :     0.006837
      f-1     :     0.001653
      f+2     :     0.004578
      f-2     :     0.008002
      f+3     :     0.010599
      f-3     :     0.007559
  5 C s       :     2.770263  s :     2.770263
      pz      :     0.915827  p :     2.892112
      px      :     1.007654
      py      :     0.968631
      dz2     :     0.067398  d :     0.380238
      dxz     :     0.066711
      dyz     :     0.054345
      dx2y2   :     0.074691
      dxy     :     0.117093
      f0      :     0.003670  f :     0.042806
      f+1     :     0.005507
      f-1     :     0.005032
      f+2     :     0.006328
      f-2     :     0.007818
      f+3     :     0.007603
      f-3     :     0.006848
  6 H s       :     0.781967  s :     0.781967
      pz      :     0.017115  p :     0.059620
      px      :     0.029891
      py      :     0.012613
  7 H s       :     0.781913  s :     0.781913
      pz      :     0.012000  p :     0.059452
      px      :     0.028025
      py      :     0.019426
  8 H s       :     0.775485  s :     0.775485
      pz      :     0.021155  p :     0.060023
      px      :     0.010657
      py      :     0.028211
  9 H s       :     0.776876  s :     0.776876
      pz      :     0.016945  p :     0.060268
      px      :     0.029598
      py      :     0.013725
 10 H s       :     0.782077  s :     0.782077
      pz      :     0.020386  p :     0.059538
      px      :     0.010690
      py      :     0.028462
 11 C s       :     2.771780  s :     2.771780
      pz      :     0.882448  p :     2.790128
      px      :     0.928895
      py      :     0.978784
      dz2     :     0.074101  d :     0.511162
      dxz     :     0.122272
      dyz     :     0.088722
      dx2y2   :     0.128703
      dxy     :     0.097364
      f0      :     0.008541  f :     0.065418
      f+1     :     0.014210
      f-1     :     0.002608
      f+2     :     0.009298
      f-2     :     0.012328
      f+3     :     0.008765
      f-3     :     0.009668
 12 N s       :     2.962871  s :     2.962871
      pz      :     1.217887  p :     3.719058
      px      :     1.285485
      py      :     1.215686
      dz2     :     0.039781  d :     0.158036
      dxz     :     0.028502
      dyz     :     0.032932
      dx2y2   :     0.023459
      dxy     :     0.033362
      f0      :     0.001035  f :     0.011625
      f+1     :     0.002432
      f-1     :     0.001591
      f+2     :     0.001824
      f-2     :     0.001922
      f+3     :     0.001647
      f-3     :     0.001174
 13 H s       :     0.748048  s :     0.748048
      pz      :     0.021983  p :     0.062755
      px      :     0.010016
      py      :     0.030756
 14 H s       :     1.150433  s :     1.150433
      pz      :     0.012381  p :     0.023167
      px      :     0.005378
      py      :     0.005409
 15 H s       :     0.666955  s :     0.666955
      pz      :     0.018717  p :     0.106248
      px      :     0.031988
      py      :     0.055543
 16 H s       :     0.674692  s :     0.674692
      pz      :     0.050556  p :     0.106564
      px      :     0.020893
      py      :     0.035115
 17 Cus       :     6.508649  s :     6.508649
      pz      :     4.261115  p :    12.354672
      px      :     4.042925
      py      :     4.050633
      dz2     :     1.898729  d :     9.840220
      dxz     :     1.983206
      dyz     :     2.003000
      dx2y2   :     1.975284
      dxy     :     1.980002
      f0      :     0.000053  f :     0.000211
      f+1     :     0.000022
      f-1     :     0.000068
      f+2     :     0.000020
      f-2     :     0.000026
      f+3     :     0.000008
      f-3     :     0.000014


                      *****************************
                      * MAYER POPULATION ANALYSIS *
                      *****************************

  NA   - Mulliken gross atomic population
  ZA   - Total nuclear charge
  QA   - Mulliken gross atomic charge
  VA   - Mayer's total valence
  BVA  - Mayer's bonded valence
  FA   - Mayer's free valence

  ATOM       NA         ZA         QA         VA         BVA        FA
  0 C      6.1142     6.0000    -0.1142     3.8818     3.8818    -0.0000
  1 C      6.1781     6.0000    -0.1781     3.9562     3.9562    -0.0000
  2 C      5.7972     6.0000     0.2028     3.5736     3.5736    -0.0000
  3 C      6.1972     6.0000    -0.1972     3.9399     3.9399    -0.0000
  4 C      6.1284     6.0000    -0.1284     3.9242     3.9242    -0.0000
  5 C      6.0947     6.0000    -0.0947     3.8844     3.8844    -0.0000
  6 H      0.8417     1.0000     0.1583     0.9629     0.9629    -0.0000
  7 H      0.8384     1.0000     0.1616     0.9603     0.9603    -0.0000
  8 H      0.8398     1.0000     0.1602     0.9668     0.9668    -0.0000
  9 H      0.8387     1.0000     0.1613     0.9654     0.9654    -0.0000
 10 H      0.8423     1.0000     0.1577     0.9642     0.9642    -0.0000
 11 C      6.0146     6.0000    -0.0146     4.0205     4.0205    -0.0000
 12 N      7.2409     7.0000    -0.2409     3.3416     3.3416    -0.0000
 13 H      0.8016     1.0000     0.1984     0.9872     0.9872    -0.0000
 14 H      1.1548     1.0000    -0.1548     0.9963     0.9963    -0.0000
 15 H      0.6768     1.0000     0.3232     0.9016     0.9016     0.0000
 16 H      0.6841     1.0000     0.3159     0.9089     0.9089    -0.0000
 17 Cu    28.7165    29.0000     0.2835     1.8958     1.8958    -0.0000

  Mayer bond orders larger than 0.100000
B(  0-C ,  1-C ) :   1.4319 B(  0-C ,  5-C ) :   1.3809 B(  0-C ,  6-H ) :   0.9676 
B(  1-C ,  2-C ) :   1.2995 B(  1-C ,  8-H ) :   0.9640 B(  2-C ,  3-C ) :   1.2450 
B(  2-C , 11-C ) :   1.1041 B(  3-C ,  4-C ) :   1.4818 B(  3-C ,  9-H ) :   0.9552 
B(  4-C ,  5-C ) :   1.3532 B(  4-C , 10-H ) :   0.9643 B(  5-C ,  7-H ) :   0.9607 
B( 11-C , 12-N ) :   1.1921 B( 11-C , 13-H ) :   0.9205 B( 11-C , 17-Cu) :   0.6092 
B( 12-N , 15-H ) :   0.8783 B( 12-N , 16-H ) :   0.8749 B( 12-N , 17-Cu) :   0.2885 
B( 14-H , 17-Cu) :   0.8828 

-------
TIMINGS
-------

Total SCF time: 0 days 0 hours 8 min 12 sec 

Total time                  ....     492.563 sec
Sum of individual times     ....     427.005 sec  ( 86.7%)

Fock matrix formation       ....     190.175 sec  ( 38.6%)
  Split-RI-J                ....      59.267 sec  ( 31.2% of F)
  Chain of spheres X        ....      26.972 sec  ( 14.2% of F)
  XC integration            ....      16.729 sec  (  8.8% of F)
    Basis function eval.    ....       0.553 sec  (  3.3% of XC)
    Density eval.           ....       0.668 sec  (  4.0% of XC)
    XC-Functional eval.     ....       0.066 sec  (  0.4% of XC)
    XC-Potential eval.      ....       0.584 sec  (  3.5% of XC)
Diagonalization             ....      71.378 sec  ( 14.5%)
Density matrix formation    ....       3.024 sec  (  0.6%)
Population analysis         ....       3.994 sec  (  0.8%)
Initial guess               ....       7.240 sec  (  1.5%)
Orbital Transformation      ....       0.000 sec  (  0.0%)
Orbital Orthonormalization  ....       0.000 sec  (  0.0%)
DIIS solution               ....     136.864 sec  ( 27.8%)
Grid generation             ....      14.330 sec  (  2.9%)

Maximum memory used throughout the entire SCF-calculation: 83.1 MB


-------------------------------------------------------------------------------
                          DFT DISPERSION CORRECTION                            
[...]
      9      -0.017280  -0.189200   0.008416  -0.000645  -0.021965  -0.039297
     10       0.144248  -0.227817   0.013441  -0.001537   0.006029   0.010476
     11      -0.111715   0.076844  -0.005618   0.000455  -0.014390  -0.025517
     12       0.144437   0.236459   0.004278   0.001148   0.000824   0.001873
     13      -0.071492   0.143157  -0.006183   0.000447  -0.020275  -0.027653
     14       0.119340   0.006992   0.006161   0.000254   0.015008   0.020820
     15      -0.176586  -0.088675  -0.005529  -0.000257   0.025991   0.020788
     16       0.182433  -0.101810   0.005014   0.000101   0.020410   0.016964
     17      -0.213984   0.032077  -0.006278  -0.000168  -0.002451  -0.002420
     18       0.193868  -0.071910  -0.001608   0.000216   0.307659   0.004352
     19       0.059127  -0.280756  -0.009304   0.000012  -0.068644   0.000306
     20       0.049979   0.167160   0.005493  -0.000089   0.193145   0.001784
     21       0.259913  -0.147462   0.009640  -0.000002  -0.302707  -0.245438
     22      -0.305978  -0.062951  -0.012772  -0.000192  -0.238192  -0.193586
     23       0.340793  -0.026536   0.015231   0.000090   0.028870   0.023684
     24       0.314388   0.343702  -0.002634   0.001348  -0.022951   0.011284
     25       0.149341   0.010081  -0.003258   0.000543   0.477718  -0.259472
     26       0.036798   0.151975   0.002491  -0.000144  -0.357405   0.193523
     27      -0.227410   0.140117  -0.048970  -0.000158   0.256438   0.461098
     28      -0.233931   0.398388  -0.091120   0.000519  -0.063923  -0.113629
     29       0.059795  -0.218703   0.039993   0.000609   0.163467   0.293250
     30      -0.163493  -0.297920  -0.007128  -0.000170  -0.012093  -0.017261
     31      -0.167527   0.018005  -0.010521  -0.000072   0.240345   0.329558
     32       0.043845  -0.152357   0.005019  -0.000099  -0.179092  -0.245938
     33      -0.040896   0.022897   0.057434   0.001149  -0.005882   0.007302
     34       0.010139  -0.014835   0.007939   0.000328   0.029817  -0.040653
     35      -0.028616   0.009170   0.014120   0.003571  -0.018720   0.025277
     36       0.008166  -0.027473  -0.086527  -0.002764   0.000574  -0.000663
     37      -0.001019   0.002358  -0.009641  -0.000093  -0.000869   0.001129
     38       0.009625  -0.013688  -0.066634  -0.003237   0.001020  -0.001434
     39       0.204715  -0.023751  -0.098736   0.008082   0.069390  -0.092942
     40       0.096889  -0.014925  -0.041511  -0.006206  -0.338042   0.464749
     41       0.030080   0.028928  -0.012599  -0.003183   0.211047  -0.289341
     42      -0.002248  -0.019584  -0.005582   0.103120   0.000623  -0.000721
     43      -0.000695  -0.003438  -0.004037   0.312919  -0.001279   0.001710
     44      -0.003265  -0.022429  -0.015269   0.943865  -0.000924   0.001381
     45      -0.016541   0.035836   0.290817   0.004478   0.000586   0.000190
     46       0.015543  -0.049906  -0.291846  -0.006972   0.003053  -0.004340
     47      -0.027048   0.047939   0.543296   0.003625  -0.000239   0.001645
     48       0.012746   0.022463   0.506670   0.006433   0.002388   0.000314
     49      -0.010921   0.033765   0.431067   0.005485   0.005038  -0.007075
     50       0.003566  -0.008733   0.225624  -0.002695  -0.003574   0.008169
     51       0.000053  -0.000274  -0.000001  -0.001796  -0.000013   0.000024
     52      -0.000037   0.000471   0.000133  -0.004910   0.000018  -0.000028
     53      -0.000137   0.001076   0.000493  -0.014731  -0.000021   0.000018
                 48         49         50         51         52         53    
      0      -0.022199  -0.009686  -0.046460   0.044378  -0.000063   0.000008
      1       0.005284  -0.000701   0.009166  -0.010645  -0.000224   0.000002
      2      -0.014160  -0.004037  -0.028299   0.028394   0.000161  -0.000017
      3       0.001823  -0.001818   0.000930  -0.001085   0.000527  -0.000049
      4      -0.029248   0.033551   0.020393  -0.016447  -0.000088  -0.000044
      5       0.022126  -0.025204  -0.014363   0.011412   0.000308  -0.000004
      6       0.000258   0.000716   0.001047  -0.000766  -0.001430  -0.000323
      7       0.001993   0.000523  -0.001330  -0.000616  -0.000962   0.000170
      8      -0.001318  -0.000002   0.001431   0.000064  -0.000067  -0.000089
      9       0.031532   0.034277  -0.026257  -0.018139  -0.000034   0.000059
     10      -0.007379  -0.008650   0.004416   0.002669   0.000646  -0.000300
     11       0.019742   0.021925  -0.015201  -0.010245  -0.000437   0.000230
     12      -0.001797  -0.002438  -0.001069  -0.002769  -0.000163  -0.000063
     13       0.009261  -0.007303   0.045963   0.039023  -0.000062   0.000096
     14      -0.007520   0.004143  -0.033673  -0.029467  -0.000079  -0.000047
     15       0.014535   0.045891   0.002810   0.035526   0.000000   0.000022
     16       0.010919   0.036075  -0.001563   0.028223   0.000076  -0.000038
     17      -0.001005  -0.004348   0.002442  -0.003586  -0.000063   0.000058
     18       0.263333   0.098957   0.519941  -0.495507  -0.000833  -0.000105
     19      -0.058966  -0.018746  -0.113949   0.110902   0.000162  -0.000040
     20       0.165368   0.059721   0.324889  -0.311268  -0.000452  -0.000062
     21      -0.164970  -0.527535  -0.012005  -0.389818  -0.000084  -0.000109
     22      -0.129253  -0.415290  -0.005019  -0.306842  -0.000024  -0.000093
     23       0.015251   0.050423  -0.002014   0.037276   0.000111  -0.000123
     24      -0.017101   0.018490   0.008127  -0.005973   0.000038  -0.000094
     25       0.341212  -0.381738  -0.219033   0.170661   0.001320  -0.000010
     26      -0.255693   0.285770   0.162813  -0.126695  -0.001012  -0.000009
     27      -0.362616  -0.392393   0.281327   0.187864  -0.000817   0.001203
     28       0.089243   0.096512  -0.066800  -0.044115  -0.005231   0.005173
     29      -0.230353  -0.249319   0.177000   0.117863   0.002707  -0.002610
     30       0.007210  -0.000847   0.025270   0.023623  -0.000106   0.000108
     31      -0.114884   0.075959  -0.514525  -0.433070  -0.000525  -0.000218
     32       0.086226  -0.055188   0.383064   0.323518   0.000304   0.000194
     33       0.009464  -0.002951  -0.000732  -0.000067  -0.000440  -0.000620
     34      -0.049558   0.018428   0.002934  -0.001554   0.000402   0.000604
     35       0.031095  -0.011428  -0.001933   0.000954   0.000680  -0.000604
     36      -0.000753   0.000218   0.000039   0.000036   0.036505   0.017830
     37       0.001632  -0.000561  -0.000177   0.000009   0.013789   0.075554
     38      -0.001810   0.000730   0.000147  -0.000100   0.038112  -0.036308
     39      -0.112657   0.040543   0.006616  -0.002702  -0.004399   0.007026
     40       0.563163  -0.211100  -0.031969   0.018132   0.005830  -0.015604
     41      -0.350499   0.130981   0.019927  -0.011168  -0.006709   0.008757
     42      -0.000959   0.000063   0.000076   0.000270   0.002358   0.000084
     43       0.002127  -0.000659  -0.000127  -0.000092  -0.001468   0.000862
     44       0.001456  -0.000317  -0.000027  -0.000244  -0.002230   0.000182
     45       0.000335  -0.001104  -0.000142   0.000969  -0.394371  -0.347544
     46      -0.004060   0.001101  -0.000113   0.000942  -0.632633  -0.556343
     47       0.000956  -0.001204   0.000159   0.000415  -0.046964  -0.050424
     48      -0.004139  -0.000739   0.001183   0.000457  -0.089918   0.102791
     49      -0.009221   0.003808   0.000801  -0.000870   0.441598  -0.491452
     50       0.006962  -0.004963   0.000043   0.001366  -0.485609   0.554356
     51       0.000023  -0.000015  -0.000001   0.000003  -0.000001   0.000006
     52      -0.000036   0.000015   0.000003  -0.000003   0.000030   0.000032
     53       0.000033  -0.000004  -0.000005  -0.000003   0.000068  -0.000001


-----------
IR SPECTRUM
-----------

 Mode   freq       eps      Int      T**2         TX        TY        TZ
       cm**-1   L/(mol*cm) km/mol    a.u.
----------------------------------------------------------------------------
  6:     54.16   0.002282   11.53  0.013148  ( 0.090520 -0.067788  0.018937)
  7:     71.96   0.001123    5.67  0.004868  ( 0.045240  0.048105 -0.022530)
  8:    147.41   0.019565   98.88  0.041420  ( 0.184360 -0.020366 -0.083764)
  9:    228.29   0.005768   29.15  0.007885  ( 0.024609  0.081231 -0.026091)
 10:    282.50   0.053093  268.31  0.058650  (-0.201684  0.032608  0.130038)
 11:    302.87   0.040262  203.47  0.041484  ( 0.186579 -0.038811 -0.071876)
 12:    392.52   0.025494  128.84  0.020269  ( 0.132770  0.028708 -0.042626)
 13:    402.94   0.011908   60.18  0.009222  (-0.053868 -0.075207  0.025770)
 14:    415.05   0.016186   81.80  0.012170  (-0.036923  0.101861 -0.020750)
 15:    473.02   0.002825   14.28  0.001864  (-0.024687  0.017058  0.031038)
 16:    495.91   0.003943   19.93  0.002481  ( 0.002121 -0.007799  0.049150)
 17:    586.24   0.005624   28.42  0.002993  (-0.045207 -0.020389  0.023111)
 18:    628.69   0.000340    1.72  0.000169  ( 0.012020  0.001218  0.004761)
 19:    679.01   0.006097   30.81  0.002802  (-0.020171  0.023113  0.043139)
 20:    708.85   0.009502   48.02  0.004183  ( 0.018550  0.051927  0.033801)
 21:    778.84   0.057975  292.98  0.023229  (-0.130366  0.038600  0.068878)
 22:    798.28   0.018912   95.57  0.007393  ( 0.084322 -0.009656 -0.013770)
 23:    811.07   0.000859    4.34  0.000330  (-0.008709  0.005312  0.015046)
 24:    844.48   0.000231    1.17  0.000086  ( 0.009183 -0.000556  0.000929)
 25:    953.61   0.004490   22.69  0.001469  ( 0.032487  0.002591 -0.020179)
 26:    979.08   0.013610   68.78  0.004338  (-0.058670 -0.012032  0.027401)
 27:    996.60   0.001141    5.77  0.000357  (-0.016465 -0.005816  0.007242)
 28:   1019.09   0.001409    7.12  0.000431  (-0.019501 -0.007044  0.001192)
 29:   1030.67   0.000120    0.61  0.000036  ( 0.004521 -0.000957 -0.003874)
 30:   1046.72   0.000319    1.61  0.000095  (-0.004265 -0.008326 -0.002755)
 31:   1103.08   0.002105   10.64  0.000595  ( 0.015132 -0.018369  0.005391)
 32:   1138.13   0.002887   14.59  0.000792  ( 0.001429  0.007134  0.027179)
 33:   1187.13   0.000372    1.88  0.000098  ( 0.005013 -0.007475  0.004113)
 34:   1210.47   0.018535   93.67  0.004778  ( 0.061757  0.025532 -0.017678)
 35:   1237.89   0.009983   50.45  0.002517  ( 0.042417  0.012606 -0.023631)
 36:   1310.15   0.035760  180.72  0.008518  ( 0.068082  0.053252  0.032355)
 37:   1358.96   0.013800   69.74  0.003169  ( 0.055325  0.008026  0.006605)
 38:   1378.00   0.004382   22.14  0.000992  ( 0.014354  0.025414 -0.011851)
 39:   1480.82   0.018844   95.23  0.003971  (-0.033272 -0.049866  0.019429)
 40:   1514.56   0.014797   74.78  0.003049  ( 0.048628  0.023367  0.011748)
 41:   1543.31   0.028586  144.46  0.005780  ( 0.069140  0.030988 -0.006293)
 42:   1608.99   0.002246   11.35  0.000436  (-0.018815 -0.009020  0.000506)
 43:   1633.23   0.037121  187.59  0.007093  (-0.072535 -0.037648  0.020350)
 44:   1647.50   0.054114  273.47  0.010250  ( 0.081963  0.024961  0.053936)
 45:   1846.29   0.056650  286.28  0.009575  ( 0.024972 -0.024230 -0.091457)
 46:   3184.34   0.000820    4.14  0.000080  ( 0.004096 -0.007664 -0.002206)
 47:   3186.87   0.001839    9.30  0.000180  (-0.010310  0.008368  0.001950)
 48:   3189.62   0.002114   10.68  0.000207  (-0.007726  0.011486  0.003899)
 49:   3192.92   0.000355    1.80  0.000035  ( 0.005784 -0.000340  0.001080)
 50:   3203.74   0.000694    3.51  0.000068  (-0.004520  0.003681 -0.005797)
 51:   3209.18   0.001030    5.21  0.000100  ( 0.008523  0.004402 -0.002861)
 52:   3487.40   0.055720  281.59  0.004986  (-0.044247 -0.032819 -0.044172)
 53:   3585.97   0.032211  162.78  0.002803  (-0.014131 -0.046652  0.020665)

* The epsilon (eps) is given for a Dirac delta lineshape.
** The dipole moment derivative (T) already includes vibrational overlap.

The first frequency considered to be a vibration is 6
The total number of vibrations considered is 48


--------------------------
THERMOCHEMISTRY AT 298.15K
--------------------------

Temperature         ... 298.15 K
Pressure            ... 1.00 atm
Total Mass          ... 170.71 AMU

Throughout the following assumptions are being made:
  (1) The electronic state is orbitally nondegenerate
  (2) There are no thermally accessible electronically excited states
  (3) Hindered rotations indicated by low frequency modes are not
      treated as such but are treated as vibrations and this may
      cause some error
  (4) All equations used are the standard statistical mechanics
      equations for an ideal gas
  (5) All vibrations are strictly harmonic

freq.      54.16  E(vib)   ...       0.52 
freq.      71.96  E(vib)   ...       0.50 
freq.     147.41  E(vib)   ...       0.41 
freq.     228.29  E(vib)   ...       0.32 
freq.     282.50  E(vib)   ...       0.28 
freq.     302.87  E(vib)   ...       0.26 
freq.     392.52  E(vib)   ...       0.20 
freq.     402.94  E(vib)   ...       0.19 
freq.     415.05  E(vib)   ...       0.19 
freq.     473.02  E(vib)   ...       0.15 
freq.     495.91  E(vib)   ...       0.14 
freq.     586.24  E(vib)   ...       0.11 
freq.     628.69  E(vib)   ...       0.09 
freq.     679.01  E(vib)   ...       0.08 
freq.     708.85  E(vib)   ...       0.07 
freq.     778.84  E(vib)   ...       0.05 
freq.     798.28  E(vib)   ...       0.05 
freq.     811.07  E(vib)   ...       0.05 
freq.     844.48  E(vib)   ...       0.04 
freq.     953.61  E(vib)   ...       0.03 
freq.     979.08  E(vib)   ...       0.03 
freq.     996.60  E(vib)   ...       0.02 
freq.    1019.09  E(vib)   ...       0.02 
freq.    1030.67  E(vib)   ...       0.02 
freq.    1046.72  E(vib)   ...       0.02 
freq.    1103.08  E(vib)   ...       0.02 
freq.    1138.13  E(vib)   ...       0.01 
freq.    1187.13  E(vib)   ...       0.01 
freq.    1210.47  E(vib)   ...       0.01 
freq.    1237.89  E(vib)   ...       0.01 
freq.    1310.15  E(vib)   ...       0.01 
freq.    1358.96  E(vib)   ...       0.01 
freq.    1378.00  E(vib)   ...       0.01 
freq.    1480.82  E(vib)   ...       0.00 
freq.    1514.56  E(vib)   ...       0.00 
freq.    1543.31  E(vib)   ...       0.00 
freq.    1608.99  E(vib)   ...       0.00 
freq.    1633.23  E(vib)   ...       0.00 
freq.    1647.50  E(vib)   ...       0.00 
freq.    1846.29  E(vib)   ...       0.00 
freq.    3184.34  E(vib)   ...       0.00 
freq.    3186.87  E(vib)   ...       0.00 
freq.    3189.62  E(vib)   ...       0.00 
freq.    3192.92  E(vib)   ...       0.00 
freq.    3203.74  E(vib)   ...       0.00 
freq.    3209.18  E(vib)   ...       0.00 
freq.    3487.40  E(vib)   ...       0.00 
freq.    3585.97  E(vib)   ...       0.00 

------------
INNER ENERGY
------------

The inner energy is: U= E(el) + E(ZPE) + E(vib) + E(rot) + E(trans)
    E(el)   - is the total energy from the electronic structure calculation
              = E(kin-el) + E(nuc-el) + E(el-el) + E(nuc-nuc)
    E(ZPE)  - the the zero temperature vibrational energy from the frequency calculation
    E(vib)  - the the finite temperature correction to E(ZPE) due to population
              of excited vibrational states
    E(rot)  - is the rotational thermal energy
    E(trans)- is the translational thermal energy

Summary of contributions to the inner energy U:
Electronic energy                ...  -1967.14337532 Eh
Zero point energy                ...      0.14253676 Eh      89.44 kcal/mol
Thermal vibrational correction   ...      0.00624413 Eh       3.92 kcal/mol
Thermal rotational correction    ...      0.00141627 Eh       0.89 kcal/mol
Thermal translational correction ...      0.00141627 Eh       0.89 kcal/mol
-----------------------------------------------------------------------
Total thermal energy                  -1966.99176188 Eh


Summary of corrections to the electronic energy:
(perhaps to be used in another calculation)
Total thermal correction                  0.00907667 Eh       5.70 kcal/mol
Non-thermal (ZPE) correction              0.14253676 Eh      89.44 kcal/mol
-----------------------------------------------------------------------
Total correction                          0.15161344 Eh      95.14 kcal/mol


--------
ENTHALPY
--------

The enthalpy is H = U + kB*T
                kB is Boltzmann's constant
Total free energy                 ...  -1966.99176188 Eh 
Thermal Enthalpy correction       ...      0.00094421 Eh       0.59 kcal/mol
-----------------------------------------------------------------------
Total Enthalpy                    ...  -1966.99081767 Eh


Note: Only C1 symmetry has been detected, increase convergence thresholds 
      if your molecule has a higher symmetry. Symmetry factor of 1.0 is   
      used for the rotational entropy correction. 
 

Note: Rotational entropy computed according to Herzberg 
Infrared and Raman Spectra, Chapter V,1, Van Nostrand Reinhold, 1945 
Point Group:  C1, Symmetry Number:   1  
Rotational constants in cm-1:     0.095612     0.021433     0.020687 

Vibrational entropy computed according to the QRRHO of S. Grimme
Chem.Eur.J. 2012 18 9955


-------
ENTROPY
-------

The entropy contributions are T*S = T*(S(el)+S(vib)+S(rot)+S(trans))
     S(el)   - electronic entropy
     S(vib)  - vibrational entropy
     S(rot)  - rotational entropy
     S(trans)- translational entropy
The entropies will be listed as multiplied by the temperature to get
units of energy

Electronic entropy                ...      0.00000000 Eh      0.00 kcal/mol
Vibrational entropy               ...      0.01040989 Eh      6.53 kcal/mol
Rotational entropy                ...      0.01426407 Eh      8.95 kcal/mol
Translational entropy             ...      0.01962863 Eh     12.32 kcal/mol
-----------------------------------------------------------------------
Final entropy term                ...      0.04430258 Eh     27.80 kcal/mol

In case the symmetry of your molecule has not been determined correctly
or in case you have a reason to use a different symmetry number we print 
out the resulting rotational entropy values for sn=1,12 :
 --------------------------------------------------------
|  sn= 1 | S(rot)=       0.01426407 Eh      8.95 kcal/mol|
|  sn= 2 | S(rot)=       0.01360961 Eh      8.54 kcal/mol|
|  sn= 3 | S(rot)=       0.01322678 Eh      8.30 kcal/mol|
|  sn= 4 | S(rot)=       0.01295516 Eh      8.13 kcal/mol|
|  sn= 5 | S(rot)=       0.01274447 Eh      8.00 kcal/mol|
|  sn= 6 | S(rot)=       0.01257232 Eh      7.89 kcal/mol|
|  sn= 7 | S(rot)=       0.01242678 Eh      7.80 kcal/mol|
|  sn= 8 | S(rot)=       0.01230070 Eh      7.72 kcal/mol|
|  sn= 9 | S(rot)=       0.01218949 Eh      7.65 kcal/mol|
|  sn=10 | S(rot)=       0.01209001 Eh      7.59 kcal/mol|
|  sn=11 | S(rot)=       0.01200002 Eh      7.53 kcal/mol|
|  sn=12 | S(rot)=       0.01191787 Eh      7.48 kcal/mol|
 --------------------------------------------------------


-------------------
GIBBS FREE ENERGY
-------------------

The Gibbs free energy is G = H - T*S

Total enthalpy                    ...  -1966.99081767 Eh 
Total entropy correction          ...     -0.04430258 Eh    -27.80 kcal/mol
-----------------------------------------------------------------------
Final Gibbs free energy         ...  -1967.03512026 Eh

For completeness - the Gibbs free energy minus the electronic energy
G-E(el)                           ...      0.10825507 Eh     67.93 kcal/mol


Timings for individual modules:

Sum of individual times         ...     8159.536 sec (= 135.992 min)
GTO integral calculation        ...      306.480 sec (=   5.108 min)   3.8 %
SCF iterations                  ...     6200.640 sec (= 103.344 min)  76.0 %
SCF Gradient evaluation         ...      461.623 sec (=   7.694 min)   5.7 %
Geometry relaxation             ...        1.166 sec (=   0.019 min)   0.0 %
Analytical frequency calculation...     1189.627 sec (=  19.827 min)  14.6 %
                             ****ORCA TERMINATED NORMALLY****
TOTAL RUN TIME: 0 days 2 hours 18 minutes 54 seconds 315 msec
