18
Properties=species:S:1:pos:R:3 energy=-1967.03220268425 pbc="F F F"
C       -2.99095700       1.81388700       1.61345800
C       -1.90736000       2.66701000       1.51014400
C       -0.73023400       2.40350600       2.23447100
C       -0.65969600       1.26654800       3.06126800
C       -1.74709800       0.42257100       3.15860900
C       -2.91127400       0.69236200       2.43463900
H       -3.89560700       2.01781300       1.05707700
H       -3.75744400       0.02227300       2.51411000
H       -1.95489100       3.54023300       0.87219800
H        0.23703000       1.03806900       3.62208600
H       -1.69607700      -0.45066400       3.79468100
C        0.34717000       3.33341200       2.08025000
N        1.52295900       3.29601500       2.74856200
H        1.67273700       2.62565500       3.49535500
H        2.05721700       4.15505600       2.83371200
H        0.16378000       4.24565200       1.52452000
H        0.05252800       3.09313300       0.87273600
Cu       6.97961700       3.52187300       4.22507700