
                                 *****************
                                 * O   R   C   A *
                                 *****************

                                            #,                                       
                                            ###                                      
                                            ####                                     
                                            #####                                    
                                            ######                                   
                                           ########,                                 
                                     ,,################,,,,,                         
                               ,,#################################,,                 
                          ,,##########################################,,             
                       ,#########################################, ''#####,          
                    ,#############################################,,   '####,        
                  ,##################################################,,,,####,       
                ,###########''''           ''''###############################       
              ,#####''   ,,,,##########,,,,          '''####'''          '####       
            ,##' ,,,,###########################,,,                        '##       
           ' ,,###''''                  '''############,,,                           
         ,,##''                                '''############,,,,        ,,,,,,###''
      ,#''                                            '''#######################'''  
     '                                                          ''''####''''         
             ,#######,   #######,   ,#######,      ##                                
            ,#'     '#,  ##    ##  ,#'     '#,    #''#        ######   ,####,        
            ##       ##  ##   ,#'  ##            #'  '#       #        #'  '#        
            ##       ##  #######   ##           ,######,      #####,   #    #        
            '#,     ,#'  ##    ##  '#,     ,#' ,#      #,         ##   #,  ,#        
             '#######'   ##     ##  '#######'  #'      '#     #####' # '####'        



                  #######################################################
                  #                        -***-                        #
                  #          Department of theory and spectroscopy      #
                  #    Directorship and core code : Frank Neese         #
                  #        Max Planck Institute fuer Kohlenforschung    #
                  #                Kaiser Wilhelm Platz 1               #
                  #                 D-45470 Muelheim/Ruhr               #
                  #                      Germany                        #
                  #                                                     #
                  #                  All rights reserved                #
                  #                        -***-                        #
                  #######################################################


                         Program Version 5.0.3 -  RELEASE  -


 With contributions from (in alphabetic order):
   Daniel Aravena         : Magnetic Suceptibility
   Michael Atanasov       : Ab Initio Ligand Field Theory (pilot matlab implementation)
   Alexander A. Auer      : GIAO ZORA, VPT2 properties, NMR spectrum
   Ute Becker             : Parallelization
   Giovanni Bistoni       : ED, misc. LED, open-shell LED, HFLD
   Martin Brehm           : Molecular dynamics
   Dmytro Bykov           : SCF Hessian
   Vijay G. Chilkuri      : MRCI spin determinant printing, contributions to CSF-ICE
   Dipayan Datta          : RHF DLPNO-CCSD density
   Achintya Kumar Dutta   : EOM-CC, STEOM-CC
   Dmitry Ganyushin       : Spin-Orbit,Spin-Spin,Magnetic field MRCI
   Miquel Garcia          : C-PCM and meta-GGA Hessian, CC/C-PCM, Gaussian charge scheme
   Yang Guo               : DLPNO-NEVPT2, F12-NEVPT2, CIM, IAO-localization
   Andreas Hansen         : Spin unrestricted coupled pair/coupled cluster methods
   Benjamin Helmich-Paris : MC-RPA, TRAH-SCF, COSX integrals
   Lee Huntington         : MR-EOM, pCC
   Robert Izsak           : Overlap fitted RIJCOSX, COSX-SCS-MP3, EOM
   Marcus Kettner         : VPT2
   Christian Kollmar      : KDIIS, OOCD, Brueckner-CCSD(T), CCSD density, CASPT2, CASPT2-K
   Simone Kossmann        : Meta GGA functionals, TD-DFT gradient, OOMP2, MP2 Hessian
   Martin Krupicka        : Initial AUTO-CI
   Lucas Lang             : DCDCAS
   Marvin Lechner         : AUTO-CI (C++ implementation), FIC-MRCC
   Dagmar Lenk            : GEPOL surface, SMD
   Dimitrios Liakos       : Extrapolation schemes; Compound Job, initial MDCI parallelization
   Dimitrios Manganas     : Further ROCIS development; embedding schemes
   Dimitrios Pantazis     : SARC Basis sets
   Anastasios Papadopoulos: AUTO-CI, single reference methods and gradients
   Taras Petrenko         : DFT Hessian,TD-DFT gradient, ASA, ECA, R-Raman, ABS, FL, XAS/XES, NRVS
   Peter Pinski           : DLPNO-MP2, DLPNO-MP2 Gradient
   Christoph Reimann      : Effective Core Potentials
   Marius Retegan         : Local ZFS, SOC
   Christoph Riplinger    : Optimizer, TS searches, QM/MM, DLPNO-CCSD(T), (RO)-DLPNO pert. Triples
   Tobias Risthaus        : Range-separated hybrids, TD-DFT gradient, RPA, STAB
   Michael Roemelt        : Original ROCIS implementation
   Masaaki Saitow         : Open-shell DLPNO-CCSD energy and density
   Barbara Sandhoefer     : DKH picture change effects
   Avijit Sen             : IP-ROCIS
   Kantharuban Sivalingam : CASSCF convergence, NEVPT2, FIC-MRCI
   Bernardo de Souza      : ESD, SOC TD-DFT
   Georgi Stoychev        : AutoAux, RI-MP2 NMR, DLPNO-MP2 response
   Willem Van den Heuvel  : Paramagnetic NMR
   Boris Wezisla          : Elementary symmetry handling
   Frank Wennmohs         : Technical directorship


 We gratefully acknowledge several colleagues who have allowed us to
 interface, adapt or use parts of their codes:
   Stefan Grimme, W. Hujo, H. Kruse, P. Pracht,  : VdW corrections, initial TS optimization,
                  C. Bannwarth, S. Ehlert          DFT functionals, gCP, sTDA/sTD-DF
   Ed Valeev, F. Pavosevic, A. Kumar             : LibInt (2-el integral package), F12 methods
   Garnet Chan, S. Sharma, J. Yang, R. Olivares  : DMRG
   Ulf Ekstrom                                   : XCFun DFT Library
   Mihaly Kallay                                 : mrcc  (arbitrary order and MRCC methods)
   Jiri Pittner, Ondrej Demel                    : Mk-CCSD
   Frank Weinhold                                : gennbo (NPA and NBO analysis)
   Christopher J. Cramer and Donald G. Truhlar   : smd solvation model
   Lars Goerigk                                  : TD-DFT with DH, B97 family of functionals
   V. Asgeirsson, H. Jonsson                     : NEB implementation
   FAccTs GmbH                                   : IRC, NEB, NEB-TS, DLPNO-Multilevel, CI-OPT
                                                   MM, QMMM, 2- and 3-layer-ONIOM, Crystal-QMMM,
                                                   LR-CPCM, SF, NACMEs, symmetry and pop. for TD-DFT,
                                                   nearIR, NL-DFT gradient (VV10), updates on ESD,
                                                   ML-optimized integration grids
   S Lehtola, MJT Oliveira, MAL Marques          : LibXC Library
   Liviu Ungur et al                             : ANISO software


 Your calculation uses the libint2 library for the computation of 2-el integrals
 For citations please refer to: http://libint.valeyev.net

 Your ORCA version has been built with support for libXC version: 5.1.0
 For citations please refer to: https://tddft.org/programs/libxc/

 This ORCA versions uses:
   CBLAS   interface :  Fast vector & matrix operations
   LAPACKE interface :  Fast linear algebra routines
   SCALAPACK package :  Parallel linear algebra routines
   Shared memory     :  Shared parallel matrices
   BLAS/LAPACK       :  OpenBLAS 0.3.15  USE64BITINT DYNAMIC_ARCH NO_AFFINITY Haswell SINGLE_THREADED
        Core in use  :  Haswell
   Copyright (c) 2011-2014, The OpenBLAS Project




***************************************
The coordinates will be read from file: reactant_opt_constrained.xyz
***************************************


Your calculation utilizes the atom-pairwise dispersion correction
with the Becke-Johnson damping scheme (D3BJ)
Cite in your paper:
S.Grimme, S.Ehrlich, L.Goerigk, J Comput Chem, (2011), 32, 1456–1465 
S.Grimme, J.Antony, S.Ehrlich and H.Krieg, J.Chem.Phys., 132, (2010), 154104 
   

================================================================================

----- Orbital basis set information -----
Your calculation utilizes the basis: def2-TZVP
   F. Weigend and R. Ahlrichs, Phys. Chem. Chem. Phys. 7, 3297 (2005).

----- AuxJ basis set information -----
Your calculation utilizes the auxiliary basis: def2/J
   F. Weigend, Phys. Chem. Chem. Phys. 8, 1057 (2006).

================================================================================
                                        WARNINGS
                       Please study these warnings very carefully!
================================================================================


WARNING: Geometry Optimization
  ===> : Switching off AutoStart
         For restart on a previous wavefunction, please use MOREAD

INFO   : the flag for use of the SHARK integral package has been found!

================================================================================
                                       INPUT FILE
================================================================================
NAME = orca.inp
|  1> !B3LYP DEF2-TZVP D3BJ 
|  2> !OPT FREQ TIGHTOPT TightSCF defgrid2
|  3> %SCF
|  4>     MaxIter 2000       # Here setting MaxIter to a very high number. Intended for systems that require sometimes 1000 iterations before converging (very rare).
|  5>     DIISMaxEq 5        # Default value is 5. A value of 15-40 necessary for difficult systems.
|  6>     directresetfreq 15 # Default value is 15. A value of 1 (very expensive) is sometimes required. A value between 1 and 15 may be more cost-effective.
|  7> END
|  8> %CPCM EPSILON 6.02 REFRAC 1.3723 END
|  9> %PAL NPROCS 32 END
| 10> %maxcore 2000 # This indicates you want ORCA to use only 2GB per core maximum, so ORCA will use only 2GB*32=64GB of memory in total.
| 11> * xyzfile 1 1 reactant_opt_constrained.xyz 
| 12> 
| 13>                          ****END OF INPUT****
================================================================================

                       *****************************
                       * Geometry Optimization Run *
                       *****************************

Geometry optimization settings:
Update method            Update   .... BFGS
Choice of coordinates    CoordSys .... Z-matrix Internals
Initial Hessian          InHess   .... Almoef's Model

Convergence Tolerances:
Energy Change            TolE     ....  1.0000e-06 Eh
Max. Gradient            TolMAXG  ....  1.0000e-04 Eh/bohr
RMS Gradient             TolRMSG  ....  3.0000e-05 Eh/bohr
Max. Displacement        TolMAXD  ....  1.0000e-03 bohr
RMS Displacement         TolRMSD  ....  6.0000e-04 bohr
Strict Convergence                ....  False
------------------------------------------------------------------------------
                        ORCA OPTIMIZATION COORDINATE SETUP
------------------------------------------------------------------------------

The optimization will be done in new redundant internal coordinates
Making redundant internal coordinates   ...  (new redundants) done
Evaluating the initial hessian          ...  (Almloef) done
Evaluating the coordinates              ...  done
Calculating the B-matrix                .... done
Calculating the G-matrix                .... done
Diagonalizing the G-matrix              .... done
The first mode is                       ....  106
The number of degrees of freedom        ....   48

    -----------------------------------------------------------------
                    Redundant Internal Coordinates


    -----------------------------------------------------------------
         Definition                    Initial Value    Approx d2E/dq
    -----------------------------------------------------------------
      1. B(C   1,C   0)                  1.3830         0.641084   
      2. B(C   2,C   1)                  1.4070         0.586923   
      3. B(C   3,C   2)                  1.4076         0.585751   
      4. B(C   4,C   3)                  1.3799         0.648336   
      5. B(C   5,C   4)                  1.3972         0.608440   
      6. B(C   5,C   0)                  1.3923         0.619534   
      7. B(H   6,C   0)                  1.0824         0.370237   
      8. B(H   7,C   5)                  1.0824         0.370331   
      9. B(H   8,C   1)                  1.0832         0.369261   
     10. B(H   9,C   3)                  1.0868         0.364298   
     11. B(H  10,C   4)                  1.0826         0.370034   
     12. B(C  11,C   2)                  1.5055         0.408746   
     13. B(N  12,C  11)                  1.4972         0.377456   
     14. B(H  13,C  11)                  1.0903         0.359641   
     15. B(H  14,C  11)                  1.0892         0.361110   
     16. B(H  15,N  12)                  1.0163         0.422787   
     17. B(H  16,N  12)                  1.0174         0.421085   
     18. B(Cu 17,N  12)                  1.9961         0.610913   
     19. B(Cu 17,C  11)                  2.8179         0.033323   
     20. B(Cu 17,C   3)                  2.5941         0.075823   
     21. B(Cu 17,C   2)                  2.7592         0.041347   
     22. A(C   5,C   0,H   6)          120.0170         0.354527   
     23. A(C   1,C   0,H   6)          120.2393         0.356590   
     24. A(C   1,C   0,C   5)          119.7433         0.436629   
     25. A(C   0,C   1,H   8)          120.6643         0.356430   
     26. A(C   2,C   1,H   8)          119.2348         0.351141   
     27. A(C   0,C   1,C   2)          120.1002         0.432400   
     28. A(C   1,C   2,C   3)          119.7084         0.425455   
     29. A(C   3,C   2,C  11)          119.1465         0.399001   
     30. A(C   3,C   2,Cu 17)           68.3562         0.302162   
     31. A(C  11,C   2,Cu 17)           76.5030         0.285491   
     32. A(C   1,C   2,Cu 17)          121.8426         0.302258   
     33. A(C   1,C   2,C  11)          120.9282         0.399142   
     34. A(C   2,C   3,Cu 17)           81.3558         0.333522   
     35. A(C   4,C   3,H   9)          120.3649         0.356292   
     36. A(C   2,C   3,H   9)          119.7697         0.350221   
     37. A(C   2,C   3,C   4)          119.7337         0.433120   
     38. A(H   9,C   3,Cu 17)           76.6273         0.278930   
     39. A(C   4,C   3,Cu 17)          115.9683         0.339205   
     40. A(C   3,C   4,H  10)          120.1212         0.357239   
     41. A(C   3,C   4,C   5)          120.1278         0.436092   
     42. A(C   5,C   4,H  10)          119.7363         0.353411   
     43. A(C   0,C   5,H   7)          119.8682         0.354542   
     44. A(C   0,C   5,C   4)          120.5859         0.432541   
     45. A(C   4,C   5,H   7)          119.5457         0.353459   
     46. A(H  13,C  11,H  14)          108.5718         0.290909   
     47. A(N  12,C  11,H  14)          107.1158         0.323077   
     48. A(C   2,C  11,H  14)          110.5091         0.329312   
     49. A(N  12,C  11,H  13)          110.3560         0.322862   
     50. A(C   2,C  11,H  13)          111.3158         0.329091   
     51. A(H  14,C  11,Cu 17)          100.7325         0.246367   
     52. A(H  13,C  11,Cu 17)          146.1369         0.246222   
     53. A(N  12,C  11,Cu 17)           42.7346         0.271271   
     54. A(C   2,C  11,Cu 17)           72.1975         0.276126   
     55. A(C   2,C  11,N  12)          108.8862         0.367342   
     56. A(H  15,N  12,H  16)          106.4220         0.300826   
     57. A(C  11,N  12,H  16)          109.6975         0.328537   
     58. A(C  11,N  12,H  15)          110.6525         0.328756   
     59. A(H  15,N  12,Cu 17)          115.6990         0.398530   
     60. A(C  11,N  12,Cu 17)          106.6691         0.439023   
     61. A(H  16,N  12,Cu 17)          107.5941         0.398247   
     62. A(C  11,Cu 17,N  12)           30.5963         0.324316   
     63. A(C   3,Cu 17,N  12)           85.6821         0.372444   
     64. A(C   2,Cu 17,N  12)           59.2612         0.336092   
     65. A(C   3,Cu 17,C  11)           55.1323         0.236601   
     66. A(C   2,Cu 17,C  11)           31.2995         0.217671   
     67. A(C   2,Cu 17,C   3)           30.2880         0.243987   
     68. D(H   8,C   1,C   0,C   5)   -179.8289         0.028561   
     69. D(H   8,C   1,C   0,H   6)      0.4074         0.028561   
     70. D(C   2,C   1,C   0,H   6)   -179.8931         0.028561   
     71. D(C   2,C   1,C   0,C   5)     -0.1293         0.028561   
     72. D(C   3,C   2,C   1,C   0)      0.1653         0.025732   
     73. D(C   3,C   2,C   1,H   8)    179.8691         0.025732   
     74. D(C  11,C   2,C   1,C   0)   -174.4381         0.025732   
     75. D(C  11,C   2,C   1,H   8)      5.2658         0.025732   
     76. D(Cu 17,C   2,C   1,C   0)    -81.4673         0.025732   
     77. D(Cu 17,C   2,C   1,H   8)     98.2366         0.025732   
     78. D(H   9,C   3,C   2,C   1)    175.6005         0.027532   
     79. D(C   4,C   3,C   2,C  11)    174.4554         0.027532   
     80. D(C   4,C   3,C   2,Cu 17)    115.0385         0.027532   
     81. D(H   9,C   3,C   2,C  11)     -9.6997         0.027532   
     82. D(C   4,C   3,C   2,C   1)     -0.2444         0.027532   
     83. D(Cu 17,C   3,C   2,C   1)   -115.2829         0.027532   
     84. D(Cu 17,C   3,C   2,C  11)     59.4169         0.027532   
     85. D(H   9,C   3,C   2,Cu 17)    -69.1166         0.027532   
     86. D(H  10,C   4,C   3,Cu 17)    -86.1977         0.031806   
     87. D(H  10,C   4,C   3,H   9)      3.0684         0.031806   
     88. D(H  10,C   4,C   3,C   2)    178.8882         0.031806   
     89. D(C   5,C   4,C   3,Cu 17)     95.2019         0.031806   
     90. D(C   5,C   4,C   3,C   2)      0.2878         0.031806   
     91. D(C   5,C   4,C   3,H   9)   -175.5320         0.031806   
     92. D(C   0,C   5,C   4,C   3)     -0.2538         0.025560   
     93. D(H   7,C   5,C   4,C   3)    179.5930         0.025560   
     94. D(H   7,C   5,C   0,H   6)      0.0907         0.026557   
     95. D(C   4,C   5,C   0,C   1)      0.1727         0.026557   
     96. D(C   0,C   5,C   4,H  10)   -178.8595         0.025560   
     97. D(H   7,C   5,C   0,C   1)   -179.6736         0.026557   
     98. D(C   4,C   5,C   0,H   6)    179.9370         0.026557   
     99. D(H   7,C   5,C   4,H  10)      0.9872         0.025560   
    100. D(N  12,C  11,C   2,Cu 17)    -22.3023         0.014052   
    101. D(H  14,C  11,C   2,C   3)     39.7110         0.014052   
    102. D(H  13,C  11,C   2,Cu 17)   -144.1817         0.014052   
    103. D(H  13,C  11,C   2,C   3)    160.4400         0.014052   
    104. D(H  13,C  11,C   2,C   1)    -24.9268         0.014052   
    105. D(H  14,C  11,C   2,C   1)   -145.6558         0.014052   
    106. D(Cu 17,C  11,C   2,C   1)    119.2549         0.014052   
    107. D(N  12,C  11,C   2,C   3)    -77.6806         0.014052   
    108. D(Cu 17,C  11,C   2,C   3)    -55.3783         0.014052   
    109. D(N  12,C  11,C   2,C   1)     96.9526         0.014052   
    110. D(H  14,C  11,C   2,Cu 17)     95.0893         0.014052   
    111. D(Cu 17,N  12,C  11,H  14)    -87.3537         0.013854   
    112. D(Cu 17,N  12,C  11,H  13)    154.6312         0.013854   
    113. D(Cu 17,N  12,C  11,C   2)     32.1711         0.013854   
    114. D(H  16,N  12,C  11,Cu 17)   -116.2531         0.013854   
    115. D(H  16,N  12,C  11,H  14)    156.3932         0.013854   
    116. D(H  16,N  12,C  11,H  13)     38.3781         0.013854   
    117. D(H  16,N  12,C  11,C   2)    -84.0820         0.013854   
    118. D(H  15,N  12,C  11,Cu 17)    126.6278         0.013854   
    119. D(H  15,N  12,C  11,H  14)     39.2740         0.013854   
    120. D(H  15,N  12,C  11,H  13)    -78.7410         0.013854   
    121. D(H  15,N  12,C  11,C   2)    158.7988         0.013854   
    122. D(C   2,Cu 17,C   3,C   4)   -118.9446         0.001529   
    123. D(N  12,Cu 17,C   2,C  11)     18.2604         0.001509   
    124. D(N  12,Cu 17,C   2,C   3)    147.6148         0.001509   
    125. D(N  12,Cu 17,C   2,C   1)    -99.9776         0.001509   
    126. D(C  11,Cu 17,C   2,C   3)    129.3544         0.001509   
    127. D(C  11,Cu 17,C   2,C   1)   -118.2380         0.001509   
    128. D(C   3,Cu 17,C   2,C  11)   -129.3544         0.001509   
    129. D(C   2,Cu 17,C   3,H   9)    123.5289         0.001529   
    130. D(C   3,Cu 17,C   2,C   1)    112.4076         0.001509   
    131. D(C  11,Cu 17,N  12,H  15)   -123.5513         0.003336   
    132. D(C   3,Cu 17,N  12,H  16)    114.7152         0.003336   
    133. D(C   3,Cu 17,N  12,H  15)   -126.4852         0.003336   
    134. D(C   3,Cu 17,N  12,C  11)     -2.9339         0.003336   
    135. D(C   2,Cu 17,N  12,H  16)     98.9973         0.003336   
    136. D(C   2,Cu 17,N  12,H  15)   -142.2031         0.003336   
    137. D(C   2,Cu 17,N  12,C  11)    -18.6518         0.003336   
    138. D(N  12,Cu 17,C  11,H  13)    -46.1278         0.001507   
    139. D(N  12,Cu 17,C  11,C   2)   -148.0540         0.001507   
    140. D(C   3,Cu 17,C  11,H  14)    -79.9006         0.001507   
    141. D(C   3,Cu 17,C  11,H  13)    130.3057         0.001507   
    142. D(C   3,Cu 17,C  11,N  12)    176.4336         0.001507   
    143. D(C   3,Cu 17,C  11,C   2)     28.3796         0.001507   
    144. D(C   2,Cu 17,C  11,H  14)   -108.2802         0.001507   
    145. D(N  12,Cu 17,C  11,H  14)    103.6658         0.001507   
    146. D(C   2,Cu 17,C  11,H  13)    101.9262         0.001507   
    147. D(C   2,Cu 17,C  11,N  12)    148.0540         0.001507   
    148. D(N  12,Cu 17,C   3,H   9)     96.0340         0.001529   
    149. D(N  12,Cu 17,C   3,C   4)   -146.4394         0.001529   
    150. D(N  12,Cu 17,C   3,C   2)    -27.4949         0.001529   
    151. D(C  11,Cu 17,C   3,H   9)     94.2145         0.001529   
    152. D(C  11,Cu 17,C   3,C   4)   -148.2590         0.001529   
    153. D(C  11,Cu 17,N  12,H  16)    117.6491         0.003336   
    154. D(C  11,Cu 17,C   3,C   2)    -29.3144         0.001529   
    -----------------------------------------------------------------

Number of atoms                         .... 18
Number of degrees of freedom            .... 154

         *************************************************************
         *                GEOMETRY OPTIMIZATION CYCLE   1            *
         *************************************************************
---------------------------------
CARTESIAN COORDINATES (ANGSTROEM)
---------------------------------
  C     -2.990957    1.813887    1.613458
  C     -1.907360    2.667010    1.510144
  C     -0.730233    2.403506    2.234471
  C     -0.659696    1.266548    3.061268
  C     -1.747098    0.422571    3.158609
  C     -2.911274    0.692362    2.434639
  H     -3.897028    2.013504    1.055899
  H     -3.756232    0.020458    2.512896
  H     -1.954034    3.545252    0.877885
  H      0.271962    1.022571    3.564974
  H     -1.693464   -0.463306    3.778569
  C      0.413911    3.382019    2.234139
  N      0.322954    4.234415    3.461623
  H      0.403154    4.004106    1.338735
  H      1.366370    2.855504    2.279341
  H      1.225504    4.648387    3.678242
  H     -0.315981    5.008455    3.295034
  Cu    -0.472024    3.093290    4.893520

----------------------------
CARTESIAN COORDINATES (A.U.)
----------------------------
  NO LB      ZA    FRAG     MASS         X           Y           Z
   0 C     6.0000    0    12.011   -5.652090    3.427750    3.048994
   1 C     6.0000    0    12.011   -3.604388    5.039918    2.853759
   2 C     6.0000    0    12.011   -1.379941    4.541969    4.222539
   3 C     6.0000    0    12.011   -1.246645    2.393430    5.784958
   4 C     6.0000    0    12.011   -3.301536    0.798544    5.968906
   5 C     6.0000    0    12.011   -5.501511    1.308375    4.600800
   6 H     1.0000    0     1.008   -7.364316    3.804971    1.995360
   7 H     1.0000    0     1.008   -7.098250    0.038660    4.748685
   8 H     1.0000    0     1.008   -3.692588    6.699555    1.658963
   9 H     1.0000    0     1.008    0.513934    1.932378    6.736825
  10 H     1.0000    0     1.008   -3.200183   -0.875522    7.140461
  11 C     6.0000    0    12.011    0.782178    6.391089    4.221911
  12 N     7.0000    0    14.007    0.610294    8.001884    6.541519
  13 H     1.0000    0     1.008    0.761850    7.566663    2.529842
  14 H     1.0000    0     1.008    2.582064    5.396120    4.307330
  15 H     1.0000    0     1.008    2.315866    8.784178    6.950870
  16 H     1.0000    0     1.008   -0.597117    9.464608    6.226712
  17 Cu   29.0000    0    63.550   -0.891996    5.845471    9.247412

--------------------------------
INTERNAL COORDINATES (ANGSTROEM)
--------------------------------
 C      0   0   0     0.000000000000     0.00000000     0.00000000
 C      1   0   0     1.382994812623     0.00000000     0.00000000
 C      2   1   0     1.407021975592   120.10020092     0.00000000
 C      3   2   1     1.407565990202   119.70835886     0.16527425
 C      4   3   2     1.379932882103   119.73370845   359.75560236
 C      1   2   3     1.392302269609   119.74331044   359.87069432
 H      1   2   3     1.082442927905   120.23930386   180.10694449
 H      6   1   2     1.082374043355   119.86820811   180.32643822
 H      2   1   3     1.083161634925   120.66429485   180.30041506
 H      4   3   2     1.086845021861   119.76971934   175.60047047
 H      5   4   3     1.082592564875   120.12115012   178.88815328
 C      3   2   1     1.505507516436   120.92823958   185.56191476
 N     12   3   2     1.497186762100   108.88618784    96.95256714
 H     12   3   2     1.090347050833   111.31584202   335.07319039
 H     12   3   2     1.089237793999   110.50911767   214.34417173
 H     13  12   3     1.016313597777   110.65248937   158.79883850
 H     13  12   3     1.017411966395   109.69747298   275.91797439
 Cu    13  12   3     1.996116767341   106.66907414    32.17108192

---------------------------
INTERNAL COORDINATES (A.U.)
---------------------------
 C      0   0   0     0.000000000000     0.00000000     0.00000000
 C      1   0   0     2.613481440492     0.00000000     0.00000000
 C      2   1   0     2.658886198277   120.10020092     0.00000000
 C      3   2   1     2.659914236904   119.70835886     0.16527425
 C      4   3   2     2.607695230368   119.73370845   359.75560236
 C      1   2   3     2.631069985197   119.74331044   359.87069432
 H      1   2   3     2.045520689340   120.23930386   180.10694449
 H      6   1   2     2.045390516405   119.86820811   180.32643822
 H      2   1   3     2.046878848778   120.66429485   180.30041506
 H      4   3   2     2.053839441333   119.76971934   175.60047047
 H      5   4   3     2.045803462234   120.12115012   178.88815328
 C      3   2   1     2.844996898624   120.92823958   185.56191476
 N     12   3   2     2.829272951702   108.88618784    96.95256714
 H     12   3   2     2.060457317002   111.31584202   335.07319039
 H     12   3   2     2.058361125375   110.50911767   214.34417173
 H     13  12   3     1.920554365979   110.65248937   158.79883850
 H     13  12   3     1.922629981861   109.69747298   275.91797439
 Cu    13  12   3     3.772114021603   106.66907414    32.17108192

---------------------
BASIS SET INFORMATION
---------------------
There are 4 groups of distinct atoms

 Group   1 Type C   : 11s6p2d1f contracted to 5s3p2d1f pattern {62111/411/11/1}
 Group   2 Type H   : 5s1p contracted to 3s1p pattern {311/1}
 Group   3 Type N   : 11s6p2d1f contracted to 5s3p2d1f pattern {62111/411/11/1}
 Group   4 Type Cu  : 17s11p7d1f contracted to 6s4p4d1f pattern {842111/6311/4111/1}

Atom   0C    basis set group =>   1
Atom   1C    basis set group =>   1
Atom   2C    basis set group =>   1
Atom   3C    basis set group =>   1
Atom   4C    basis set group =>   1
Atom   5C    basis set group =>   1
Atom   6H    basis set group =>   2
Atom   7H    basis set group =>   2
Atom   8H    basis set group =>   2
Atom   9H    basis set group =>   2
Atom  10H    basis set group =>   2
Atom  11C    basis set group =>   1
Atom  12N    basis set group =>   3
Atom  13H    basis set group =>   2
Atom  14H    basis set group =>   2
Atom  15H    basis set group =>   2
Atom  16H    basis set group =>   2
Atom  17Cu   basis set group =>   4
---------------------------------
AUXILIARY/J BASIS SET INFORMATION
---------------------------------
There are 4 groups of distinct atoms

 Group   1 Type C   : 12s5p4d2f1g contracted to 6s4p3d1f1g pattern {711111/2111/211/2/1}
 Group   2 Type H   : 5s2p1d contracted to 3s1p1d pattern {311/2/1}
 Group   3 Type N   : 12s5p4d2f1g contracted to 6s4p3d1f1g pattern {711111/2111/211/2/1}
 Group   4 Type Cu  : 19s5p5d3f3g contracted to 8s5p4d3f3g pattern {121111111/11111/2111/111/111}

Atom   0C    basis set group =>   1
Atom   1C    basis set group =>   1
Atom   2C    basis set group =>   1
Atom   3C    basis set group =>   1
Atom   4C    basis set group =>   1
Atom   5C    basis set group =>   1
Atom   6H    basis set group =>   2
Atom   7H    basis set group =>   2
Atom   8H    basis set group =>   2
Atom   9H    basis set group =>   2
Atom  10H    basis set group =>   2
Atom  11C    basis set group =>   1
Atom  12N    basis set group =>   3
Atom  13H    basis set group =>   2
Atom  14H    basis set group =>   2
Atom  15H    basis set group =>   2
Atom  16H    basis set group =>   2
Atom  17Cu   basis set group =>   4


           ************************************************************
           *        Program running with 32 parallel MPI-processes    *
           *              working on a common directory               *
           ************************************************************
------------------------------------------------------------------------------
                           ORCA GTO INTEGRAL CALCULATION
                           -- RI-GTO INTEGRALS CHOSEN --
------------------------------------------------------------------------------
------------------------------------------------------------------------------
                   ___                                                        
                  /   \      - P O W E R E D   B Y -                         
                 /     \                                                     
                 |  |  |   _    _      __       _____    __    __             
                 |  |  |  | |  | |    /  \     |  _  \  |  |  /  |          
                  \  \/   | |  | |   /    \    | | | |  |  | /  /          
                 / \  \   | |__| |  /  /\  \   | |_| |  |  |/  /          
                |  |  |   |  __  | /  /__\  \  |    /   |      \           
                |  |  |   | |  | | |   __   |  |    \   |  |\   \          
                \     /   | |  | | |  |  |  |  | |\  \  |  | \   \       
                 \___/    |_|  |_| |__|  |__|  |_| \__\ |__|  \__/        
                                                                              
                      - O R C A' S   B I G   F R I E N D -                    
                                      &                                       
                       - I N T E G R A L  F E E D E R -                       
                                                                              
 v1 FN, 2020, v2 2021                                                         
------------------------------------------------------------------------------


Reading SHARK input file orca.SHARKINP.tmp ... ok
----------------------
SHARK INTEGRAL PACKAGE
----------------------

Number of atoms                             ...     18
Number of basis functions                   ...    347
Number of shells                            ...    139
Maximum angular momentum                    ...      3
Integral batch strategy                     ... SHARK/LIBINT Hybrid
RI-J (if used) integral strategy            ... SPLIT-RIJ (Revised 2003 algorithm where possible)
Printlevel                                  ...      1
Contraction scheme used                     ... SEGMENTED contraction
Coulomb Range Separation                    ... NOT USED
Exchange Range Separation                   ... NOT USED
Finite Nucleus Model                        ... NOT USED
Auxiliary Coulomb fitting basis             ... AVAILABLE
   # of basis functions in Aux-J            ...    582
   # of shells in Aux-J                     ...    188
   Maximum angular momentum in Aux-J        ...      4
Auxiliary J/K fitting basis                 ... NOT available
Auxiliary Correlation fitting basis         ... NOT available
Auxiliary 'external' fitting basis          ... NOT available
Integral threshold                          ...     2.500000e-11
Primitive cut-off                           ...     2.500000e-12
Primitive pair pre-selection threshold      ...     2.500000e-12

Calculating pre-screening integrals         ... done (  0.2 sec) Dimension = 139
Organizing shell pair data                  ... done (  0.6 sec)
Shell pair information
Total number of shell pairs                 ...      9730
Shell pairs after pre-screening             ...      8751
Total number of primitive shell pairs       ...     31637
Primitive shell pairs kept                  ...     20599
          la=0 lb=0:   2325 shell pairs
          la=1 lb=0:   2425 shell pairs
          la=1 lb=1:    655 shell pairs
          la=2 lb=0:   1336 shell pairs
          la=2 lb=1:    700 shell pairs
          la=2 lb=2:    201 shell pairs
          la=3 lb=0:    588 shell pairs
          la=3 lb=1:    310 shell pairs
          la=3 lb=2:    169 shell pairs
          la=3 lb=3:     42 shell pairs

Calculating one electron integrals          ... done (  0.3 sec)
Calculating RI/J V-Matrix + Cholesky decomp.... done (  2.2 sec)
Calculating Nuclear repulsion               ... done (  0.0 sec) ENN=    631.855104760279 Eh

SHARK setup successfully completed in   5.7 seconds

Maximum memory used throughout the entire GTOINT-calculation: 25.7 MB


           ************************************************************
           *        Program running with 32 parallel MPI-processes    *
           *              working on a common directory               *
           ************************************************************
-------------------------------------------------------------------------------
                                 ORCA SCF
-------------------------------------------------------------------------------

------------
SCF SETTINGS
------------
Hamiltonian:
 Density Functional     Method          .... DFT(GTOs)
 Exchange Functional    Exchange        .... B88
   X-Alpha parameter    XAlpha          ....  0.666667
   Becke's b parameter  XBeta           ....  0.004200
 Correlation Functional Correlation     .... LYP
 LDA part of GGA corr.  LDAOpt          .... VWN-5
 Gradients option       PostSCFGGA      .... off
 Hybrid DFT is turned on
   Fraction HF Exchange ScalHFX         ....  0.200000
   Scaling of DF-GGA-X  ScalDFX         ....  0.720000
   Scaling of DF-GGA-C  ScalDFC         ....  0.810000
   Scaling of DF-LDA-C  ScalLDAC        ....  1.000000
   Perturbative correction              ....  0.000000
   Density functional embedding theory  .... OFF
   NL short-range parameter             ....  4.800000
 RI-approximation to the Coulomb term is turned on
   Number of AuxJ basis functions       .... 582
   RIJ-COSX (HFX calculated with COS-X)).... on


General Settings:
 Integral files         IntName         .... orca
 Hartree-Fock type      HFTyp           .... RHF
 Total Charge           Charge          ....    1
 Multiplicity           Mult            ....    1
 Number of Electrons    NEL             ....   86
 Basis Dimension        Dim             ....  347
 Nuclear Repulsion      ENuc            ....    631.8551047603 Eh

Convergence Acceleration:
 DIIS                   CNVDIIS         .... on
   Start iteration      DIISMaxIt       ....    12
   Startup error        DIISStart       ....  0.200000
   # of expansion vecs  DIISMaxEq       ....     5
   Bias factor          DIISBfac        ....   1.050
   Max. coefficient     DIISMaxC        ....  10.000
 Trust-Rad. Augm. Hess. CNVTRAH         .... auto
   Auto Start mean grad. ratio tolernc. ....  1.125000
   Auto Start start iteration           ....    20
   Auto Start num. interpolation iter.  ....    10
   Max. Number of Micro iterations      ....    16
   Max. Number of Macro iterations      .... Maxiter - #DIIS iter
   Number of Davidson start vectors     ....     2
   Converg. threshold I  (grad. norm)   ....   1.000e-05
   Converg. threshold II (energy diff.) ....   1.000e-08
   Grad. Scal. Fac. for Micro threshold ....   0.100
   Minimum threshold for Micro iter.    ....   0.010
   NR start threshold (gradient norm)   ....   0.001
   Initial trust radius                 ....   0.400
   Minimum AH scaling param. (alpha)    ....   1.000
   Maximum AH scaling param. (alpha)    .... 1000.000
   Orbital update algorithm             .... Taylor
   White noise on init. David. guess    .... on
   Maximum white noise                  ....   0.010
   Quad. conv. algorithm                .... NR
 SOSCF                  CNVSOSCF        .... off
 Level Shifting         CNVShift        .... on
   Level shift para.    LevelShift      ....    0.2500
   Turn off err/grad.   ShiftErr        ....    0.0010
 Zerner damping         CNVZerner       .... off
 Static damping         CNVDamp         .... on
   Fraction old density DampFac         ....    0.7000
   Max. Damping (<1)    DampMax         ....    0.9800
   Min. Damping (>=0)   DampMin         ....    0.0000
   Turn off err/grad.   DampErr         ....    0.1000
 Fernandez-Rico         CNVRico         .... off

SCF Procedure:
 Maximum # iterations   MaxIter         ....  2000
 SCF integral mode      SCFMode         .... Direct
   Integral package                     .... SHARK and LIBINT hybrid scheme
 Reset frequency        DirectResetFreq ....    15
 Integral Threshold     Thresh          ....  2.500e-11 Eh
 Primitive CutOff       TCut            ....  2.500e-12 Eh

Convergence Tolerance:
 Convergence Check Mode ConvCheckMode   .... Total+1el-Energy
 Convergence forced     ConvForced      .... 0
 Energy Change          TolE            ....  1.000e-08 Eh
 1-El. energy change                    ....  1.000e-05 Eh
 DIIS Error             TolErr          ....  5.000e-07


Diagonalization of the overlap matrix:
Smallest eigenvalue                        ... 7.913e-06
Time for diagonalization                   ...    0.162 sec
Threshold for overlap eigenvalues          ... 1.000e-08
Number of eigenvalues below threshold      ... 0
Time for construction of square roots      ...    0.708 sec
Total time needed                          ...    1.374 sec

Time for model grid setup =    2.021 sec

------------------------------
INITIAL GUESS: MODEL POTENTIAL
------------------------------
Loading Hartree-Fock densities                     ... done
Calculating cut-offs                               ... done
Initializing the effective Hamiltonian             ... done
Setting up the integral package (SHARK)            ... done
Starting the Coulomb interaction                   ... done (   2.7 sec)
Reading the grid                                   ... done
Mapping shells                                     ... done
Starting the XC term evaluation                    ... done (   0.3 sec)
  promolecular density results
     # of electrons  =     86.991585737
     EX              =   -111.071870379
     EC              =     -3.307065704
     EX+EC           =   -114.378936083
Transforming the Hamiltonian                       ... done (   1.7 sec)
Diagonalizing the Hamiltonian                      ... done (   1.3 sec)
Back transforming the eigenvectors                 ... done (   0.1 sec)
Now organizing SCF variables                       ... done
                      ------------------
                      INITIAL GUESS DONE (   9.0 sec)
                      ------------------
-------------------
DFT GRID GENERATION
-------------------

General Integration Accuracy     IntAcc      ... 4.388
Radial Grid Type                 RadialGrid  ... OptM3 with GC (2021)
Angular Grid (max. ang.)         AngularGrid ... 4 (Lebedev-302)
Angular grid pruning method      GridPruning ... 4 (adaptive)
Weight generation scheme         WeightScheme... Becke
Basis function cutoff            BFCut       ... 1.0000e-11
Integration weight cutoff        WCut        ... 1.0000e-14
Angular grids for H and He will be reduced by one unit
Partially contracted basis set               ... off
Rotationally invariant grid construction     ... off

Total number of grid points                  ...    87970
Total number of batches                      ...     1383
Average number of points per batch           ...       63
Average number of grid points per atom       ...     4887
Time for grid setup =    3.869 sec

--------------------
COSX GRID GENERATION
--------------------

GRIDX 1
-------
General Integration Accuracy     IntAcc      ... 3.816
Radial Grid Type                 RadialGrid  ... OptM3 with GC (2021)
Angular Grid (max. ang.)         AngularGrid ... 1 (Lebedev-50)
Angular grid pruning method      GridPruning ... 4 (adaptive)
Weight generation scheme         WeightScheme... Becke
Basis function cutoff            BFCut       ... 1.0000e-11
Integration weight cutoff        WCut        ... 1.0000e-14
Angular grids for H and He will be reduced by one unit
Partially contracted basis set               ... on
Rotationally invariant grid construction     ... off

Total number of grid points                  ...    11019
Total number of batches                      ...      178
Average number of points per batch           ...       61
Average number of grid points per atom       ...      612
UseSFitting                                  ... on

GRIDX 2
-------
General Integration Accuracy     IntAcc      ... 4.020
Radial Grid Type                 RadialGrid  ... OptM3 with GC (2021)
Angular Grid (max. ang.)         AngularGrid ... 2 (Lebedev-110)
Angular grid pruning method      GridPruning ... 4 (adaptive)
Weight generation scheme         WeightScheme... Becke
Basis function cutoff            BFCut       ... 1.0000e-11
Integration weight cutoff        WCut        ... 1.0000e-14
Angular grids for H and He will be reduced by one unit
Partially contracted basis set               ... on
Rotationally invariant grid construction     ... off

Total number of grid points                  ...    23715
Total number of batches                      ...      380
Average number of points per batch           ...       62
Average number of grid points per atom       ...     1318
UseSFitting                                  ... on

GRIDX 3
-------
General Integration Accuracy     IntAcc      ... 4.338
Radial Grid Type                 RadialGrid  ... OptM3 with GC (2021)
Angular Grid (max. ang.)         AngularGrid ... 3 (Lebedev-194)
Angular grid pruning method      GridPruning ... 4 (adaptive)
Weight generation scheme         WeightScheme... Becke
Basis function cutoff            BFCut       ... 1.0000e-11
Integration weight cutoff        WCut        ... 1.0000e-14
Angular grids for H and He will be reduced by one unit
Partially contracted basis set               ... on
Rotationally invariant grid construction     ... off

Total number of grid points                  ...    52095
Total number of batches                      ...      821
Average number of points per batch           ...       63
Average number of grid points per atom       ...     2894
UseSFitting                                  ... on

Time for X-Grid setup             =    9.215 sec


--------------------
CPCM SOLVATION MODEL
--------------------
CPCM parameters:
  Epsilon                                         ...       6.0200
  Refrac                                          ...       1.3723
  Rsolv                                           ...       1.3000
  Surface type                                    ... GAUSSIAN VDW
  Epsilon function type                           ...         CPCM
Radii:
 Radius for C  used is    3.8550 Bohr (=   2.0400 Ang.)
 Radius for H  used is    2.4944 Bohr (=   1.3200 Ang.)
 Radius for N  used is    3.5149 Bohr (=   1.8600 Ang.)
 Radius for Cu used is    3.1747 Bohr (=   1.6800 Ang.)
Calculating surface                               ...        done! (  0.0s)
GEPOL surface points                              ...         1032
GEPOL Volume                                      ...    1060.6898
GEPOL Surface-area                                ...     603.0062
Calculating surface distance matrix               ...        done! (  0.0s)
Performing Cholesky decomposition & store         ...        done! (  6.2s)
Overall time for CPCM initialization              ...                 6.3s
--------------
SCF ITERATIONS
--------------
ITER       Energy         Delta-E        Max-DP      RMS-DP      [F,P]     Damp
               ***  Starting incremental Fock matrix formation  ***
  0  -1966.9357565689   0.000000000000 0.04278043  0.00107250  0.2243022 0.7000
  1  -1967.0372361029  -0.101479533926 0.02782620  0.00072137  0.0995216 0.7000
                               ***Turning on DIIS***
  2  -1967.0785219067  -0.041285803816 0.06003797  0.00118508  0.0301858 0.0000
  3  -1967.1418557151  -0.063333808386 0.02295534  0.00046710  0.0550067 0.0000
  4  -1967.1573198098  -0.015464094720 0.00664659  0.00015913  0.0073411 0.0000
  5  -1967.1580495942  -0.000729784444 0.00388255  0.00006203  0.0053430 0.0000
  6  -1967.1581201243  -0.000070530040 0.00120352  0.00003080  0.0012778 0.0000
  7  -1967.1581282339  -0.000008109639 0.00119748  0.00002272  0.0003370 0.0000
               *** Restarting incremental Fock matrix formation ***
                                   *** Resetting DIIS ***
  8  -1967.1581429035  -0.000014669635 0.00032648  0.00000948  0.0002664 0.0000
  9  -1967.1581425017   0.000000401840 0.00026072  0.00000443  0.0006793 0.0000
 10  -1967.1581430453  -0.000000543638 0.00006316  0.00000105  0.0001728 0.0000
 11  -1967.1581430664  -0.000000021069 0.00017447  0.00000189  0.0000714 0.0000
 12  -1967.1581430669  -0.000000000466 0.00004457  0.00000090  0.0000104 0.0000
 13  -1967.1581430688  -0.000000001955 0.00013314  0.00000182  0.0000029 0.0000
 14  -1967.1581430804  -0.000000011589 0.00010038  0.00000148  0.0000018 0.0000
                            ***DIIS convergence achieved***

               *****************************************************
               *                     SUCCESS                       *
               *           SCF CONVERGED AFTER  15 CYCLES          *
               *****************************************************

Old exchange energy                            =    -22.316474652 Eh
New exchange energy                            =    -22.316461486 Eh
Exchange energy change after final integration =      0.000013166 Eh
Total energy after final integration           =  -1967.158129923 Eh
Final COS-X integration done in                =     3.144 sec

----------------
TOTAL SCF ENERGY
----------------

Total Energy       :        -1967.15812992 Eh          -53529.09408 eV

Components:
Nuclear Repulsion  :          631.85510476 Eh           17193.65151 eV
Electronic Energy  :        -2599.01323468 Eh          -70722.74559 eV
One Electron Energy:        -3969.12990500 Eh         -108005.51561 eV
Two Electron Energy:         1370.11667031 Eh           37282.77002 eV
Max COSX asymmetry :            0.00000140 Eh               0.00004 eV
CPCM Dielectric    :           -0.08995103 Eh              -2.44769 eV

Virial components:
Potential Energy   :        -3930.32306567 Eh         -106949.52783 eV
Kinetic Energy     :         1963.16493574 Eh           53420.43374 eV
Virial Ratio       :            2.00203406


DFT components:
N(Alpha)           :       42.999980229716 electrons
N(Beta)            :       42.999980229716 electrons
N(Total)           :       85.999960459433 electrons
E(X)               :      -88.912847924371 Eh       
E(C)               :       -3.858624197315 Eh       
E(XC)              :      -92.771472121686 Eh       
DFET-embed. en.    :        0.000000000000 Eh       
CPCM Solvation Model Properties:
Surface-charge          :           -1.02764351
Charge-correction       :            0.00356526 Eh               0.09702 eV
Free-energy (cav+disp)  :  This term is not implemented in the current solvation scheme

---------------
SCF CONVERGENCE
---------------

  Last Energy change         ...   -8.6693e-09  Tolerance :   1.0000e-08
  Last MAX-Density change    ...    0.0000e+00  Tolerance :   1.0000e-07
  Last RMS-Density change    ...    0.0000e+00  Tolerance :   5.0000e-09
  Last DIIS Error            ...    6.1179e-07  Tolerance :   5.0000e-07

             **** THE GBW FILE WAS UPDATED (orca.gbw) ****
             **** DENSITY orca.scfp WAS UPDATED ****
             **** ENERGY FILE WAS UPDATED (orca.en.tmp) ****
             **** THE GBW FILE WAS UPDATED (orca.gbw) ****
             **** DENSITY orca.scfp WAS UPDATED ****
----------------
ORBITAL ENERGIES
----------------

  NO   OCC          E(Eh)            E(eV) 
   0   2.0000    -323.021601     -8789.8646 
   1   2.0000     -38.809901     -1056.0711 
   2   2.0000     -34.014865      -925.5915 
   3   2.0000     -34.014762      -925.5887 
   4   2.0000     -34.014497      -925.5815 
   5   2.0000     -14.382560      -391.3694 
   6   2.0000     -10.238469      -278.6029 
   7   2.0000     -10.218415      -278.0572 
   8   2.0000     -10.208662      -277.7918 
   9   2.0000     -10.203480      -277.6508 
  10   2.0000     -10.202808      -277.6325 
  11   2.0000     -10.201334      -277.5924 
  12   2.0000     -10.199972      -277.5553 
  13   2.0000      -4.303926      -117.1158 
  14   2.0000      -2.799100       -76.1674 
  15   2.0000      -2.798837       -76.1602 
  16   2.0000      -2.797690       -76.1290 
  17   2.0000      -0.950607       -25.8673 
  18   2.0000      -0.887781       -24.1577 
  19   2.0000      -0.794265       -21.6131 
  20   2.0000      -0.780788       -21.2463 
  21   2.0000      -0.705214       -19.1899 
  22   2.0000      -0.638399       -17.3717 
  23   2.0000      -0.616209       -16.7679 
  24   2.0000      -0.558106       -15.1868 
  25   2.0000      -0.539673       -14.6852 
  26   2.0000      -0.517212       -14.0740 
  27   2.0000      -0.485678       -13.2160 
  28   2.0000      -0.482174       -13.1206 
  29   2.0000      -0.455204       -12.3867 
  30   2.0000      -0.447086       -12.1658 
  31   2.0000      -0.422488       -11.4965 
  32   2.0000      -0.401867       -10.9353 
  33   2.0000      -0.385982       -10.5031 
  34   2.0000      -0.371467       -10.1081 
  35   2.0000      -0.363443        -9.8898 
  36   2.0000      -0.307769        -8.3748 
  37   2.0000      -0.295596        -8.0436 
  38   2.0000      -0.292575        -7.9614 
  39   2.0000      -0.292102        -7.9485 
  40   2.0000      -0.286167        -7.7870 
  41   2.0000      -0.283542        -7.7156 
  42   2.0000      -0.258052        -7.0220 
  43   0.0000      -0.090548        -2.4639 
  44   0.0000      -0.053162        -1.4466 
  45   0.0000      -0.044136        -1.2010 
  46   0.0000       0.014968         0.4073 
  47   0.0000       0.025907         0.7050 
  48   0.0000       0.037724         1.0265 
  49   0.0000       0.044907         1.2220 
  50   0.0000       0.058111         1.5813 
  51   0.0000       0.071683         1.9506 
  52   0.0000       0.077374         2.1055 
  53   0.0000       0.089276         2.4293 
  54   0.0000       0.096239         2.6188 
  55   0.0000       0.104972         2.8564 
  56   0.0000       0.112820         3.0700 
  57   0.0000       0.115753         3.1498 
  58   0.0000       0.126875         3.4524 
  59   0.0000       0.133112         3.6222 
  60   0.0000       0.151226         4.1151 
  61   0.0000       0.153299         4.1715 
  62   0.0000       0.162786         4.4296 
  63   0.0000       0.185060         5.0357 
  64   0.0000       0.190116         5.1733 
  65   0.0000       0.200397         5.4531 
  66   0.0000       0.211463         5.7542 
  67   0.0000       0.217589         5.9209 
  68   0.0000       0.223306         6.0765 
  69   0.0000       0.225719         6.1421 
  70   0.0000       0.243875         6.6362 
  71   0.0000       0.250865         6.8264 
  72   0.0000       0.255244         6.9455 
  73   0.0000       0.266481         7.2513 
  74   0.0000       0.275745         7.5034 
  75   0.0000       0.289332         7.8731 
  76   0.0000       0.290190         7.8965 
  77   0.0000       0.296857         8.0779 
  78   0.0000       0.306202         8.3322 
  79   0.0000       0.312528         8.5043 
  80   0.0000       0.326866         8.8945 
  81   0.0000       0.335387         9.1263 
  82   0.0000       0.347011         9.4427 
  83   0.0000       0.361775         9.8444 
  84   0.0000       0.371045        10.0967 
  85   0.0000       0.381159        10.3719 
  86   0.0000       0.394000        10.7213 
  87   0.0000       0.403481        10.9793 
  88   0.0000       0.405059        11.0222 
  89   0.0000       0.406198        11.0532 
  90   0.0000       0.412130        11.2146 
  91   0.0000       0.424559        11.5528 
  92   0.0000       0.433534        11.7971 
  93   0.0000       0.440779        11.9942 
  94   0.0000       0.452352        12.3091 
  95   0.0000       0.465514        12.6673 
  96   0.0000       0.476270        12.9600 
  97   0.0000       0.477477        12.9928 
  98   0.0000       0.490160        13.3379 
  99   0.0000       0.493705        13.4344 
 100   0.0000       0.504536        13.7291 
 101   0.0000       0.525362        14.2958 
 102   0.0000       0.547926        14.9098 
 103   0.0000       0.560385        15.2488 
 104   0.0000       0.568310        15.4645 
 105   0.0000       0.584577        15.9071 
 106   0.0000       0.629295        17.1240 
 107   0.0000       0.639985        17.4149 
 108   0.0000       0.643461        17.5095 
 109   0.0000       0.659915        17.9572 
 110   0.0000       0.670744        18.2519 
 111   0.0000       0.698130        18.9971 
 112   0.0000       0.703541        19.1443 
 113   0.0000       0.716904        19.5079 
 114   0.0000       0.735341        20.0096 
 115   0.0000       0.751501        20.4494 
 116   0.0000       0.766521        20.8581 
 117   0.0000       0.792166        21.5559 
 118   0.0000       0.796449        21.6725 
 119   0.0000       0.826785        22.4980 
 120   0.0000       0.831253        22.6195 
 121   0.0000       0.842091        22.9145 
 122   0.0000       0.866612        23.5817 
 123   0.0000       0.888368        24.1737 
 124   0.0000       0.907751        24.7012 
 125   0.0000       0.934363        25.4253 
 126   0.0000       0.957328        26.0502 
 127   0.0000       0.970130        26.3986 
 128   0.0000       0.981450        26.7066 
 129   0.0000       0.988864        26.9084 
 130   0.0000       1.011803        27.5326 
 131   0.0000       1.027022        27.9467 
 132   0.0000       1.031155        28.0591 
 133   0.0000       1.040361        28.3097 
 134   0.0000       1.056068        28.7371 
 135   0.0000       1.064319        28.9616 
 136   0.0000       1.100572        29.9481 
 137   0.0000       1.125186        30.6179 
 138   0.0000       1.136903        30.9367 
 139   0.0000       1.175291        31.9813 
 140   0.0000       1.194587        32.5064 
 141   0.0000       1.201688        32.6996 
 142   0.0000       1.207368        32.8541 
 143   0.0000       1.220358        33.2076 
 144   0.0000       1.247077        33.9347 
 145   0.0000       1.262106        34.3436 
 146   0.0000       1.275818        34.7168 
 147   0.0000       1.294854        35.2348 
 148   0.0000       1.302603        35.4456 
 149   0.0000       1.311664        35.6922 
 150   0.0000       1.344027        36.5728 
 151   0.0000       1.354648        36.8618 
 152   0.0000       1.383285        37.6411 
 153   0.0000       1.406225        38.2653 
 154   0.0000       1.418278        38.5933 
 155   0.0000       1.436810        39.0976 
 156   0.0000       1.448401        39.4130 
 157   0.0000       1.460964        39.7549 
 158   0.0000       1.491095        40.5748 
 159   0.0000       1.494430        40.6655 
 160   0.0000       1.521945        41.4142 
 161   0.0000       1.546450        42.0810 
 162   0.0000       1.572144        42.7802 
 163   0.0000       1.578819        42.9618 
 164   0.0000       1.594046        43.3762 
 165   0.0000       1.602905        43.6173 
 166   0.0000       1.621281        44.1173 
 167   0.0000       1.655930        45.0602 
 168   0.0000       1.669117        45.4190 
 169   0.0000       1.670253        45.4499 
 170   0.0000       1.677420        45.6449 
 171   0.0000       1.706359        46.4324 
 172   0.0000       1.721651        46.8485 
 173   0.0000       1.733706        47.1766 
 174   0.0000       1.751398        47.6580 
 175   0.0000       1.799123        48.9566 
 176   0.0000       1.825190        49.6660 
 177   0.0000       1.864687        50.7407 
 178   0.0000       1.874669        51.0123 
 179   0.0000       1.881694        51.2035 
 180   0.0000       1.923906        52.3521 
 181   0.0000       1.944637        52.9163 
 182   0.0000       1.945096        52.9287 
 183   0.0000       1.968199        53.5574 
 184   0.0000       2.004545        54.5464 
 185   0.0000       2.013458        54.7890 
 186   0.0000       2.036885        55.4265 
 187   0.0000       2.059504        56.0420 
 188   0.0000       2.075356        56.4733 
 189   0.0000       2.090847        56.8948 
 190   0.0000       2.108239        57.3681 
 191   0.0000       2.130216        57.9661 
 192   0.0000       2.148585        58.4660 
 193   0.0000       2.153258        58.5931 
 194   0.0000       2.184824        59.4521 
 195   0.0000       2.213409        60.2299 
 196   0.0000       2.235441        60.8295 
 197   0.0000       2.239872        60.9500 
 198   0.0000       2.301398        62.6242 
 199   0.0000       2.310855        62.8815 
 200   0.0000       2.354338        64.0648 
 201   0.0000       2.365033        64.3558 
 202   0.0000       2.377309        64.6899 
 203   0.0000       2.414326        65.6971 
 204   0.0000       2.436717        66.3064 
 205   0.0000       2.477825        67.4250 
 206   0.0000       2.487342        67.6840 
 207   0.0000       2.493496        67.8515 
 208   0.0000       2.520082        68.5749 
 209   0.0000       2.527972        68.7896 
 210   0.0000       2.529815        68.8398 
 211   0.0000       2.576997        70.1237 
 212   0.0000       2.587955        70.4218 
 213   0.0000       2.609452        71.0068 
 214   0.0000       2.613550        71.1183 
 215   0.0000       2.642755        71.9130 
 216   0.0000       2.643658        71.9376 
 217   0.0000       2.649468        72.0957 
 218   0.0000       2.659587        72.3710 
 219   0.0000       2.667680        72.5913 
 220   0.0000       2.680493        72.9399 
 221   0.0000       2.695106        73.3376 
 222   0.0000       2.719061        73.9894 
 223   0.0000       2.736649        74.4680 
 224   0.0000       2.752671        74.9040 
 225   0.0000       2.754568        74.9556 
 226   0.0000       2.765529        75.2539 
 227   0.0000       2.787431        75.8499 
 228   0.0000       2.805942        76.3536 
 229   0.0000       2.810496        76.4775 
 230   0.0000       2.818806        76.7036 
 231   0.0000       2.832585        77.0785 
 232   0.0000       2.884228        78.4838 
 233   0.0000       2.899965        78.9121 
 234   0.0000       2.925298        79.6014 
 235   0.0000       2.936470        79.9054 
 236   0.0000       2.986172        81.2579 
 237   0.0000       3.014327        82.0240 
 238   0.0000       3.025120        82.3177 
 239   0.0000       3.062377        83.3315 
 240   0.0000       3.067919        83.4823 
 241   0.0000       3.074014        83.6482 
 242   0.0000       3.090852        84.1063 
 243   0.0000       3.103107        84.4398 
 244   0.0000       3.111699        84.6736 
 245   0.0000       3.115861        84.7869 
 246   0.0000       3.139289        85.4244 
 247   0.0000       3.155854        85.8752 
 248   0.0000       3.175514        86.4101 
 249   0.0000       3.191738        86.8516 
 250   0.0000       3.208883        87.3182 
 251   0.0000       3.223571        87.7178 
 252   0.0000       3.242890        88.2435 
 253   0.0000       3.255616        88.5898 
 254   0.0000       3.262933        88.7889 
 255   0.0000       3.276985        89.1713 
 256   0.0000       3.305902        89.9582 
 257   0.0000       3.327789        90.5537 
 258   0.0000       3.340252        90.8929 
 259   0.0000       3.356119        91.3246 
 260   0.0000       3.376356        91.8753 
 261   0.0000       3.386182        92.1427 
 262   0.0000       3.407383        92.7196 
 263   0.0000       3.415967        92.9532 
 264   0.0000       3.427999        93.2806 
 265   0.0000       3.449956        93.8781 
 266   0.0000       3.469294        94.4043 
 267   0.0000       3.487238        94.8926 
 268   0.0000       3.507534        95.4448 
 269   0.0000       3.518679        95.7481 
 270   0.0000       3.548500        96.5596 
 271   0.0000       3.567715        97.0825 
 272   0.0000       3.600370        97.9711 
 273   0.0000       3.640175        99.0542 
 274   0.0000       3.672386        99.9307 
 275   0.0000       3.690350       100.4195 
 276   0.0000       3.712073       101.0106 
 277   0.0000       3.725933       101.3878 
 278   0.0000       3.744562       101.8947 
 279   0.0000       3.752190       102.1023 
 280   0.0000       3.762694       102.3881 
 281   0.0000       3.781468       102.8990 
 282   0.0000       3.815302       103.8197 
 283   0.0000       3.856466       104.9398 
 284   0.0000       3.871716       105.3548 
 285   0.0000       3.886128       105.7469 
 286   0.0000       3.912330       106.4599 
 287   0.0000       3.923398       106.7611 
 288   0.0000       3.974847       108.1611 
 289   0.0000       3.980532       108.3158 
 290   0.0000       4.042712       110.0078 
 291   0.0000       4.076736       110.9336 
 292   0.0000       4.090847       111.3176 
 293   0.0000       4.109919       111.8366 
 294   0.0000       4.146904       112.8430 
 295   0.0000       4.164276       113.3157 
 296   0.0000       4.175383       113.6180 
 297   0.0000       4.198740       114.2535 
 298   0.0000       4.205734       114.4439 
 299   0.0000       4.223525       114.9280 
 300   0.0000       4.254603       115.7736 
 301   0.0000       4.277334       116.3922 
 302   0.0000       4.289362       116.7195 
 303   0.0000       4.299995       117.0088 
 304   0.0000       4.316435       117.4562 
 305   0.0000       4.430706       120.5656 
 306   0.0000       4.473882       121.7405 
 307   0.0000       4.557620       124.0192 
 308   0.0000       4.599138       125.1489 
 309   0.0000       4.654545       126.6566 
 310   0.0000       4.663650       126.9044 
 311   0.0000       4.676978       127.2670 
 312   0.0000       4.695634       127.7747 
 313   0.0000       4.788839       130.3109 
 314   0.0000       4.818631       131.1216 
 315   0.0000       4.836161       131.5986 
 316   0.0000       4.864069       132.3580 
 317   0.0000       4.881928       132.8440 
 318   0.0000       4.937508       134.3564 
 319   0.0000       4.980404       135.5237 
 320   0.0000       5.021566       136.6438 
 321   0.0000       5.071092       137.9914 
 322   0.0000       5.128730       139.5598 
 323   0.0000       5.173602       140.7809 
 324   0.0000       5.197004       141.4177 
 325   0.0000       5.232788       142.3914 
 326   0.0000       5.344670       145.4359 
 327   0.0000       5.359027       145.8265 
 328   0.0000       5.442345       148.0937 
 329   0.0000       5.457413       148.5038 
 330   0.0000       5.621834       152.9779 
 331   0.0000       5.707580       155.3112 
 332   0.0000       5.766761       156.9216 
 333   0.0000       5.768796       156.9769 
 334   0.0000       5.773232       157.0976 
 335   0.0000       5.776200       157.1784 
 336   0.0000       5.788802       157.5213 
 337   0.0000       5.810170       158.1028 
 338   0.0000       5.914543       160.9429 
 339   0.0000      21.993200       598.4654 
 340   0.0000      22.419062       610.0537 
 341   0.0000      22.560495       613.9023 
 342   0.0000      22.570827       614.1834 
 343   0.0000      22.683713       617.2552 
 344   0.0000      22.756351       619.2318 
 345   0.0000      23.139954       629.6702 
 346   0.0000      31.912076       868.3717 

                    ********************************
                    * MULLIKEN POPULATION ANALYSIS *
                    ********************************

-----------------------
MULLIKEN ATOMIC CHARGES
-----------------------
   0 C :   -0.106742
   1 C :   -0.222507
   2 C :    0.218303
   3 C :   -0.235916
   4 C :   -0.115288
   5 C :   -0.140582
   6 H :    0.149095
   7 H :    0.148389
   8 H :    0.143166
   9 H :    0.153962
  10 H :    0.149797
  11 C :   -0.138001
  12 N :   -0.434040
  13 H :    0.149411
  14 H :    0.154352
  15 H :    0.276669
  16 H :    0.275564
  17 Cu:    0.574368
Sum of atomic charges:    1.0000000

--------------------------------
MULLIKEN REDUCED ORBITAL CHARGES
--------------------------------
  0 C s       :     3.210194  s :     3.210194
      pz      :     0.936191  p :     2.807362
      px      :     0.957585
      py      :     0.913586
      dz2     :     0.011377  d :     0.081894
      dxz     :     0.016985
      dyz     :     0.013185
      dx2y2   :     0.023258
      dxy     :     0.017089
      f0      :     0.000853  f :     0.007292
      f+1     :     0.000312
      f-1     :     0.001304
      f+2     :     0.000806
      f-2     :     0.001622
      f+3     :     0.001566
      f-3     :     0.000828
  1 C s       :     3.275747  s :     3.275747
      pz      :     0.981573  p :     2.859569
      px      :     0.907684
      py      :     0.970313
      dz2     :     0.008341  d :     0.079922
      dxz     :     0.017925
      dyz     :     0.013364
      dx2y2   :     0.024422
      dxy     :     0.015869
      f0      :     0.000701  f :     0.007269
      f+1     :     0.001175
      f-1     :     0.000499
      f+2     :     0.000929
      f-2     :     0.001440
      f+3     :     0.001378
      f-3     :     0.001148
  2 C s       :     3.069665  s :     3.069665
      pz      :     0.881621  p :     2.581113
      px      :     0.825860
      py      :     0.873632
      dz2     :     0.022590  d :     0.121122
      dxz     :     0.019192
      dyz     :     0.019376
      dx2y2   :     0.031232
      dxy     :     0.028732
      f0      :     0.000761  f :     0.009798
      f+1     :     0.001342
      f-1     :     0.001342
      f+2     :     0.000923
      f-2     :     0.001990
      f+3     :     0.001951
      f-3     :     0.001489
  3 C s       :     3.262207  s :     3.262207
      pz      :     0.918784  p :     2.878312
      px      :     1.019085
      py      :     0.940442
      dz2     :     0.010990  d :     0.088201
      dxz     :     0.019364
      dyz     :     0.013140
      dx2y2   :     0.028244
      dxy     :     0.016463
      f0      :     0.000900  f :     0.007196
      f+1     :     0.000265
      f-1     :     0.001232
      f+2     :     0.000732
      f-2     :     0.001588
      f+3     :     0.001634
      f-3     :     0.000844
  4 C s       :     3.204604  s :     3.204604
      pz      :     0.978859  p :     2.818472
      px      :     0.903343
      py      :     0.936270
      dz2     :     0.009695  d :     0.084900
      dxz     :     0.017065
      dyz     :     0.013103
      dx2y2   :     0.026198
      dxy     :     0.018838
      f0      :     0.000754  f :     0.007312
      f+1     :     0.001201
      f-1     :     0.000476
      f+2     :     0.000908
      f-2     :     0.001463
      f+3     :     0.001445
      f-3     :     0.001065
  5 C s       :     3.225720  s :     3.225720
      pz      :     0.923798  p :     2.828782
      px      :     0.954426
      py      :     0.950558
      dz2     :     0.018551  d :     0.078871
      dxz     :     0.013408
      dyz     :     0.011305
      dx2y2   :     0.013154
      dxy     :     0.022453
      f0      :     0.000389  f :     0.007209
      f+1     :     0.001209
      f-1     :     0.001309
      f+2     :     0.000873
      f-2     :     0.001357
      f+3     :     0.000953
      f-3     :     0.001118
  6 H s       :     0.828665  s :     0.828665
      pz      :     0.006923  p :     0.022241
      px      :     0.011161
      py      :     0.004157
  7 H s       :     0.829298  s :     0.829298
      pz      :     0.004227  p :     0.022312
      px      :     0.010146
      py      :     0.007940
  8 H s       :     0.834540  s :     0.834540
      pz      :     0.007849  p :     0.022294
      px      :     0.003685
      py      :     0.010760
  9 H s       :     0.823480  s :     0.823480
      pz      :     0.006593  p :     0.022558
      px      :     0.011084
      py      :     0.004880
 10 H s       :     0.827948  s :     0.827948
      pz      :     0.007647  p :     0.022255
      px      :     0.003661
      py      :     0.010947
 11 C s       :     3.279676  s :     3.279676
      pz      :     0.859778  p :     2.756064
      px      :     0.980215
      py      :     0.916071
      dz2     :     0.020269  d :     0.094271
      dxz     :     0.014014
      dyz     :     0.024252
      dx2y2   :     0.021008
      dxy     :     0.014728
      f0      :     0.001346  f :     0.007990
      f+1     :     0.000574
      f-1     :     0.002158
      f+2     :     0.000745
      f-2     :     0.001270
      f+3     :     0.000762
      f-3     :     0.001136
 12 N s       :     3.472940  s :     3.472940
      pz      :     1.357650  p :     3.914741
      px      :     1.244953
      py      :     1.312138
      dz2     :     0.013588  d :     0.043908
      dxz     :     0.006827
      dyz     :     0.007256
      dx2y2   :     0.003734
      dxy     :     0.012502
      f0      :     0.000388  f :     0.002451
      f+1     :     0.000272
      f-1     :     0.000563
      f+2     :     0.000271
      f-2     :     0.000435
      f+3     :     0.000231
      f-3     :     0.000290
 13 H s       :     0.829170  s :     0.829170
      pz      :     0.010485  p :     0.021419
      px      :     0.004195
      py      :     0.006739
 14 H s       :     0.824055  s :     0.824055
      pz      :     0.003608  p :     0.021592
      px      :     0.011824
      py      :     0.006160
 15 H s       :     0.686562  s :     0.686562
      pz      :     0.009419  p :     0.036770
      px      :     0.017082
      py      :     0.010268
 16 H s       :     0.688165  s :     0.688165
      pz      :     0.008519  p :     0.036271
      px      :     0.012034
      py      :     0.015718
 17 Cus       :     6.349189  s :     6.349189
      pz      :     4.067940  p :    12.144597
      px      :     4.021863
      py      :     4.054795
      dz2     :     1.993301  d :     9.931766
      dxz     :     1.985036
      dyz     :     1.976463
      dx2y2   :     1.992351
      dxy     :     1.984614
      f0      :     0.000009  f :     0.000080
      f+1     :     0.000012
      f-1     :     0.000021
      f+2     :     0.000009
      f-2     :     0.000020
      f+3     :     0.000005
      f-3     :     0.000004


                     *******************************
                     * LOEWDIN POPULATION ANALYSIS *
                     *******************************

----------------------
LOEWDIN ATOMIC CHARGES
----------------------
   0 C :   -0.123875
   1 C :   -0.098723
   2 C :   -0.135670
   3 C :   -0.112208
   4 C :   -0.119492
   5 C :   -0.123746
   6 H :    0.153938
   7 H :    0.152278
   8 H :    0.155549
   9 H :    0.175092
  10 H :    0.154732
  11 C :   -0.215850
  12 N :   -0.011480
  13 H :    0.142407
  14 H :    0.151720
  15 H :    0.193220
  16 H :    0.196273
  17 Cu:    0.465835

-------------------------------
LOEWDIN REDUCED ORBITAL CHARGES
-------------------------------
  0 C s       :     2.765612  s :     2.765612
      pz      :     0.927818  p :     2.929302
      px      :     0.994265
      py      :     1.007219
      dz2     :     0.043508  d :     0.385226
      dxz     :     0.078654
      dyz     :     0.064014
      dx2y2   :     0.108714
      dxy     :     0.090335
      f0      :     0.005431  f :     0.043735
      f+1     :     0.002565
      f-1     :     0.005708
      f+2     :     0.004872
      f-2     :     0.008537
      f+3     :     0.010116
      f-3     :     0.006506
  1 C s       :     2.760521  s :     2.760521
      pz      :     0.924041  p :     2.918808
      px      :     1.027310
      py      :     0.967457
      dz2     :     0.036123  d :     0.376964
      dxz     :     0.075997
      dyz     :     0.062275
      dx2y2   :     0.115960
      dxy     :     0.086609
      f0      :     0.004588  f :     0.042430
      f+1     :     0.006476
      f-1     :     0.001872
      f+2     :     0.004591
      f-2     :     0.008022
      f+3     :     0.009030
      f-3     :     0.007852
  2 C s       :     2.712716  s :     2.712716
      pz      :     0.913824  p :     2.854177
      px      :     0.974931
      py      :     0.965421
      dz2     :     0.090051  d :     0.512338
      dxz     :     0.084249
      dyz     :     0.081884
      dx2y2   :     0.120014
      dxy     :     0.136140
      f0      :     0.005464  f :     0.056438
      f+1     :     0.006378
      f-1     :     0.006003
      f+2     :     0.006417
      f-2     :     0.011309
      f+3     :     0.011963
      f-3     :     0.008904
  3 C s       :     2.747569  s :     2.747569
      pz      :     0.928648  p :     2.926352
      px      :     0.998280
      py      :     0.999424
      dz2     :     0.044254  d :     0.394820
      dxz     :     0.076131
      dyz     :     0.070181
      dx2y2   :     0.113038
      dxy     :     0.091216
      f0      :     0.005486  f :     0.043466
      f+1     :     0.002501
      f-1     :     0.005676
      f+2     :     0.004761
      f-2     :     0.008173
      f+3     :     0.010390
      f-3     :     0.006477
  4 C s       :     2.763477  s :     2.763477
      pz      :     0.920535  p :     2.925544
      px      :     1.043412
      py      :     0.961597
      dz2     :     0.038088  d :     0.386748
      dxz     :     0.078539
      dyz     :     0.062612
      dx2y2   :     0.119349
      dxy     :     0.088161
      f0      :     0.004742  f :     0.043723
      f+1     :     0.006783
      f-1     :     0.001888
      f+2     :     0.004703
      f-2     :     0.008203
      f+3     :     0.009516
      f-3     :     0.007888
  5 C s       :     2.767502  s :     2.767502
      pz      :     0.952629  p :     2.935354
      px      :     0.997482
      py      :     0.985244
      dz2     :     0.073548  d :     0.378367
      dxz     :     0.062802
      dyz     :     0.057625
      dx2y2   :     0.068174
      dxy     :     0.116217
      f0      :     0.003523  f :     0.042523
      f+1     :     0.005739
      f-1     :     0.005329
      f+2     :     0.006621
      f-2     :     0.007844
      f+3     :     0.006954
      f-3     :     0.006514
  6 H s       :     0.786967  s :     0.786967
      pz      :     0.018537  p :     0.059095
      px      :     0.028482
      py      :     0.012076
  7 H s       :     0.788335  s :     0.788335
      pz      :     0.012184  p :     0.059387
      px      :     0.026218
      py      :     0.020985
  8 H s       :     0.784845  s :     0.784845
      pz      :     0.020875  p :     0.059606
      px      :     0.010833
      py      :     0.027898
  9 H s       :     0.764558  s :     0.764558
      pz      :     0.018360  p :     0.060350
      px      :     0.029060
      py      :     0.012929
 10 H s       :     0.786090  s :     0.786090
      pz      :     0.020135  p :     0.059179
      px      :     0.010991
      py      :     0.028052
 11 C s       :     2.780370  s :     2.780370
      pz      :     0.932506  p :     2.948558
      px      :     1.035276
      py      :     0.980776
      dz2     :     0.115633  d :     0.435553
      dxz     :     0.045677
      dyz     :     0.115973
      dx2y2   :     0.073207
      dxy     :     0.085063
      f0      :     0.008300  f :     0.051369
      f+1     :     0.006552
      f-1     :     0.009714
      f+2     :     0.007456
      f-2     :     0.007581
      f+3     :     0.004836
      f-3     :     0.006930
 12 N s       :     3.033071  s :     3.033071
      pz      :     1.347596  p :     3.816768
      px      :     1.210817
      py      :     1.258355
      dz2     :     0.041379  d :     0.151211
      dxz     :     0.022186
      dyz     :     0.029095
      dx2y2   :     0.015267
      dxy     :     0.043284
      f0      :     0.002038  f :     0.010429
      f+1     :     0.001700
      f-1     :     0.001593
      f+2     :     0.001264
      f-2     :     0.001455
      f+3     :     0.001104
      f-3     :     0.001275
 13 H s       :     0.797520  s :     0.797520
      pz      :     0.028666  p :     0.060073
      px      :     0.012483
      py      :     0.018924
 14 H s       :     0.788664  s :     0.788664
      pz      :     0.010973  p :     0.059616
      px      :     0.030609
      py      :     0.018034
 15 H s       :     0.700582  s :     0.700582
      pz      :     0.026438  p :     0.106198
      px      :     0.051937
      py      :     0.027822
 16 H s       :     0.697643  s :     0.697643
      pz      :     0.025174  p :     0.106084
      px      :     0.036966
      py      :     0.043944
 17 Cus       :     6.263111  s :     6.263111
      pz      :     4.047684  p :    12.165150
      px      :     4.031419
      py      :     4.086048
      dz2     :     2.026848  d :    10.105794
      dxz     :     2.014876
      dyz     :     2.034331
      dx2y2   :     2.014477
      dxy     :     2.015262
      f0      :     0.000011  f :     0.000109
      f+1     :     0.000016
      f-1     :     0.000032
      f+2     :     0.000011
      f-2     :     0.000027
      f+3     :     0.000007
      f-3     :     0.000005


                      *****************************
                      * MAYER POPULATION ANALYSIS *
                      *****************************

  NA   - Mulliken gross atomic population
[...]
      9      -0.030722  -0.010310   0.165383   0.001788   0.008836   0.072549
     10      -0.128894   0.044073   0.163257  -0.000009  -0.002369  -0.019511
     11       0.072913  -0.032616  -0.045412   0.000594   0.004503   0.039305
     12      -0.017432   0.051421  -0.244412  -0.000033  -0.000545  -0.002614
     13       0.069641  -0.019955  -0.093619  -0.000108   0.000519   0.006593
     14      -0.055451   0.035986  -0.042675   0.000059  -0.000691  -0.005618
     15       0.065817  -0.056392   0.129571  -0.000045   0.000009  -0.001045
     16      -0.132782   0.060071   0.033237  -0.000026  -0.000178  -0.000281
     17       0.124488  -0.068166   0.034932  -0.000017   0.000101  -0.000373
     18      -0.145890   0.068011   0.015413  -0.000502   0.001434  -0.009548
     19      -0.153517   0.036175   0.206265  -0.000151  -0.000407   0.002376
     20       0.042009   0.006228  -0.148604   0.000024   0.000879  -0.005923
     21      -0.166611   0.072532   0.062447   0.000428   0.001403   0.009768
     22       0.121767  -0.085440   0.129523   0.000488   0.000889   0.006520
     23      -0.160541   0.094204  -0.068938   0.000057   0.000175  -0.000516
     24      -0.074212   0.090439  -0.382372  -0.000823   0.001024   0.000335
     25      -0.091107   0.058683  -0.080453  -0.011807   0.010691   0.005893
     26       0.032052   0.006124  -0.130892   0.008001  -0.007716  -0.003883
     27       0.113448  -0.054421  -0.057059  -0.019003  -0.100111  -0.842173
     28       0.166614  -0.052730  -0.257484   0.005030   0.026607   0.232947
     29      -0.045424  -0.001776   0.165224  -0.009214  -0.051309  -0.447658
     30      -0.008956  -0.054194   0.296559  -0.000327   0.001053   0.009717
     31       0.079976  -0.050136   0.040028  -0.000604  -0.010896  -0.097447
     32      -0.060903   0.013510   0.097806   0.000477   0.008192   0.071504
     33       0.016830   0.003669   0.033656  -0.041716  -0.059373   0.007839
     34       0.005177   0.024515   0.026128  -0.017408   0.060686  -0.006608
     35       0.003979  -0.013851   0.001328   0.051430  -0.041692   0.003964
     36       0.006589   0.006354   0.003282   0.000414   0.001933  -0.000353
     37       0.050783   0.059904   0.029643   0.000347  -0.001309   0.000093
     38       0.028548   0.032725   0.020142   0.000594   0.000402  -0.000203
     39      -0.101247   0.007749  -0.027425  -0.018009   0.000177  -0.001141
     40      -0.074508   0.011424  -0.036749   0.476155  -0.332320   0.027360
     41      -0.059767  -0.026081  -0.046758  -0.656789   0.462609  -0.039172
     42       0.034893  -0.041904   0.032386   0.503134   0.707830  -0.094272
     43       0.047699  -0.055486   0.032748  -0.285734  -0.386789   0.049517
     44       0.042447   0.022933   0.012653   0.036864   0.038555  -0.005338
     45       0.262993   0.307477   0.151558  -0.006129  -0.004966   0.001659
     46      -0.500598  -0.586176  -0.277565   0.000148  -0.002571   0.000253
     47      -0.069535  -0.087192  -0.061075   0.002112   0.000967  -0.000017
     48      -0.381372  -0.446287  -0.208716   0.000522  -0.017630   0.001444
     49      -0.360715  -0.419709  -0.197602   0.004024   0.015347  -0.000861
     50      -0.241091  -0.281326  -0.134751  -0.001445  -0.008467   0.000477
     51       0.000072  -0.000045  -0.000050   0.000017  -0.000002   0.000062
     52       0.000288   0.000125   0.000336   0.000020  -0.000007  -0.000117
     53       0.000056  -0.000159   0.000012  -0.000047   0.000012  -0.000041
                 48         49         50         51         52         53    
      0      -0.032958   0.022496  -0.049200   0.035787  -0.000019   0.000010
      1       0.009070  -0.002854   0.010088  -0.009860  -0.000058  -0.000020
      2      -0.021570   0.012314  -0.029705   0.023429   0.000033   0.000002
      3       0.005001   0.001751   0.000104  -0.000710   0.000107   0.000099
      4      -0.057900  -0.029689   0.022506  -0.012481   0.000022  -0.000019
      5       0.042902   0.021645  -0.015748   0.008451  -0.000003   0.000014
      6      -0.002222  -0.001324   0.001299  -0.000768  -0.000127   0.000121
      7      -0.000205  -0.000464  -0.000648  -0.000334  -0.000108   0.000063
      8      -0.000826  -0.000240   0.001049  -0.000065   0.000086   0.000131
      9       0.001367  -0.006652  -0.006949  -0.005906  -0.000063   0.000035
     10       0.000376   0.001220  -0.000035   0.000051   0.000119   0.000099
     11       0.000312  -0.003274  -0.002565  -0.002214  -0.000116  -0.000023
     12       0.000265  -0.000958  -0.003035  -0.004510  -0.000014  -0.000054
     13      -0.007663   0.036370   0.048154   0.035903   0.000020  -0.000026
     14       0.005323  -0.025235  -0.034184  -0.026493   0.000001   0.000005
     15       0.014741  -0.045376   0.004937   0.049429  -0.000052   0.000026
     16       0.011061  -0.035496   0.000155   0.038325  -0.000001  -0.000011
     17      -0.001196   0.004795   0.002124  -0.005003  -0.000021   0.000016
     18       0.400830  -0.249144   0.553391  -0.401601   0.000099  -0.000033
     19      -0.093849   0.054528  -0.125436   0.094121   0.000046   0.000029
     20       0.250273  -0.152816   0.342626  -0.250881   0.000072  -0.000001
     21      -0.173882   0.533413  -0.036916  -0.548406   0.000232  -0.000020
     22      -0.134418   0.413564  -0.024267  -0.424925   0.000224  -0.000060
     23       0.017202  -0.053511   0.000528   0.054774   0.000020  -0.000020
     24      -0.046452  -0.022302   0.014366  -0.006628  -0.000169   0.000017
     25       0.673412   0.335730  -0.243724   0.129467  -0.000126   0.000211
     26      -0.493760  -0.245792   0.177580  -0.093926   0.000276  -0.000298
     27      -0.012966   0.066068   0.061607   0.050653   0.001133  -0.000030
     28       0.002862  -0.017513  -0.014720  -0.011977  -0.000345  -0.000070
     29      -0.006483   0.034723   0.031309   0.025658   0.000761   0.000027
     30      -0.006231   0.028439   0.039156   0.031548   0.000013  -0.000004
     31       0.089249  -0.419872  -0.548270  -0.402047   0.000077   0.000014
     32      -0.063605   0.298528   0.390708   0.287777  -0.000005  -0.000007
     33       0.000244  -0.000074  -0.000074  -0.000171   0.000637  -0.001683
     34      -0.000924  -0.000430   0.000285  -0.000126  -0.001086   0.001328
     35       0.001096   0.000477  -0.000335   0.000138   0.001729  -0.000244
     36       0.000042   0.000066  -0.000023   0.000049  -0.006162  -0.077254
     37       0.000064   0.000068  -0.000003   0.000027  -0.057041   0.012896
     38       0.000026   0.000040  -0.000011   0.000034  -0.003527  -0.019874
     39       0.001563   0.001065  -0.000259   0.000479  -0.001605   0.000357
     40       0.010531   0.005282  -0.002272   0.002201   0.007202  -0.004464
     41      -0.013171  -0.006223   0.003009  -0.002284  -0.005081   0.005279
     42      -0.001726   0.001142  -0.000283   0.002147  -0.008535   0.017019
     43       0.001840   0.000329  -0.000460  -0.000610   0.007128  -0.009884
     44      -0.000708  -0.000183   0.000151   0.000153   0.000579  -0.000222
     45      -0.000074  -0.000264   0.000017   0.000028   0.586688   0.669236
     46       0.000209   0.000271  -0.000051   0.000251   0.240965   0.309854
     47       0.000039   0.000019  -0.000121   0.000075   0.154449   0.165730
     48       0.000068   0.000170   0.000123  -0.000152  -0.497815   0.406326
     49       0.000307  -0.000022  -0.000164   0.000231   0.554342  -0.494516
     50       0.000217   0.000207  -0.000031  -0.000026  -0.123485   0.109684
     51      -0.000002  -0.000006  -0.000005  -0.000006  -0.000000  -0.000034
     52      -0.000011   0.000004   0.000002  -0.000008  -0.000061   0.000045
     53      -0.000010  -0.000006   0.000001  -0.000014   0.000017  -0.000045


-----------
IR SPECTRUM
-----------

 Mode   freq       eps      Int      T**2         TX        TY        TZ
       cm**-1   L/(mol*cm) km/mol    a.u.
----------------------------------------------------------------------------
  6:     41.50   0.000582    2.94  0.004374  ( 0.028434  0.029619  0.051852)
  7:     69.08   0.001025    5.18  0.004631  ( 0.024003  0.040284  0.049315)
  8:    112.45   0.000618    3.12  0.001715  (-0.041056  0.005437  0.000380)
  9:    151.91   0.002962   14.97  0.006085  (-0.003275 -0.031911 -0.071104)
 10:    300.90   0.000471    2.38  0.000489  (-0.011700 -0.015280 -0.010881)
 11:    349.83   0.000358    1.81  0.000320  (-0.014809  0.009831 -0.001912)
 12:    413.72   0.000626    3.16  0.000472  (-0.003484  0.016404  0.013808)
 13:    426.30   0.000298    1.50  0.000218  (-0.000953  0.014533  0.002417)
 14:    509.27   0.002251   11.38  0.001379  ( 0.000039  0.020278  0.031115)
 15:    542.67   0.007183   36.30  0.004130  ( 0.057286 -0.011548  0.026748)
 16:    631.72   0.008187   41.37  0.004044  ( 0.063429 -0.004445  0.001140)
 17:    636.50   0.000033    0.17  0.000016  ( 0.000087 -0.004045 -0.000117)
 18:    728.53   0.016854   85.17  0.007219  (-0.033094  0.043840  0.064825)
 19:    775.03   0.008961   45.29  0.003608  (-0.004740  0.033560  0.049593)
 20:    818.62   0.004049   20.46  0.001544  (-0.012491 -0.020741 -0.030942)
 21:    864.44   0.000371    1.87  0.000134  ( 0.007860 -0.001256  0.008394)
 22:    930.40   0.008444   42.67  0.002832  ( 0.005086 -0.021543 -0.048397)
 23:    939.44   0.001960    9.91  0.000651  (-0.009448 -0.011910 -0.020497)
 24:    978.48   0.003251   16.43  0.001037  ( 0.007744  0.019403  0.024500)
 25:    989.74   0.000247    1.25  0.000078  ( 0.003528  0.001474  0.007961)
 26:   1015.42   0.000183    0.93  0.000056  (-0.001310  0.002025  0.007102)
 27:   1022.88   0.000380    1.92  0.000116  (-0.004580 -0.003289 -0.009175)
 28:   1048.74   0.001028    5.20  0.000306  (-0.013609 -0.010342  0.003716)
 29:   1075.64   0.016501   83.39  0.004787  (-0.007814 -0.011028  0.067857)
 30:   1107.18   0.003764   19.02  0.001061  ( 0.019041 -0.006125 -0.025706)
 31:   1160.23   0.001160    5.86  0.000312  ( 0.002782 -0.006830  0.016051)
 32:   1179.71   0.000008    0.04  0.000002  ( 0.000197  0.000751 -0.001181)
 33:   1194.94   0.000051    0.26  0.000013  ( 0.003458  0.000477 -0.001037)
 34:   1233.15   0.002804   14.17  0.000710  ( 0.018618  0.017626 -0.007228)
 35:   1308.45   0.000605    3.06  0.000144  (-0.003521 -0.010771  0.003999)
 36:   1344.37   0.000177    0.89  0.000041  (-0.003100  0.004782  0.002919)
 37:   1363.04   0.000005    0.02  0.000001  (-0.000076 -0.000351 -0.000980)
 38:   1398.46   0.003617   18.28  0.000807  (-0.018044 -0.021014 -0.006320)
 39:   1484.37   0.001735    8.77  0.000365  (-0.009886  0.013808 -0.008735)
 40:   1497.12   0.000927    4.68  0.000193  ( 0.012599  0.000541 -0.005842)
 41:   1526.87   0.001914    9.67  0.000391  (-0.013935 -0.012424  0.006531)
 42:   1618.88   0.003134   15.84  0.000604  (-0.008806 -0.020509 -0.010294)
 43:   1620.36   0.007610   38.46  0.001466  ( 0.004693 -0.037995  0.000169)
 44:   1637.43   0.001386    7.00  0.000264  (-0.007498 -0.011439 -0.008776)
 45:   3065.36   0.005694   28.78  0.000580  (-0.014864 -0.004983  0.018274)
 46:   3116.40   0.001797    9.08  0.000180  (-0.008348  0.007814 -0.007017)
 47:   3127.56   0.001492    7.54  0.000149  ( 0.010045  0.003044  0.006221)
 48:   3171.01   0.000700    3.54  0.000069  (-0.003223 -0.006429  0.004149)
 49:   3180.57   0.000417    2.11  0.000041  (-0.004080 -0.004481  0.002055)
 50:   3188.84   0.002759   13.94  0.000270  (-0.006845  0.010631 -0.010494)
 51:   3198.92   0.001825    9.22  0.000178  ( 0.010830  0.007714  0.001093)
 52:   3468.23   0.005821   29.41  0.000524  ( 0.004129  0.022373  0.002470)
 53:   3529.91   0.010987   55.52  0.000971  ( 0.029097 -0.007329  0.008424)

* The epsilon (eps) is given for a Dirac delta lineshape.
** The dipole moment derivative (T) already includes vibrational overlap.

The first frequency considered to be a vibration is 6
The total number of vibrations considered is 48


--------------------------
THERMOCHEMISTRY AT 298.15K
--------------------------

Temperature         ... 298.15 K
Pressure            ... 1.00 atm
Total Mass          ... 170.71 AMU

Throughout the following assumptions are being made:
  (1) The electronic state is orbitally nondegenerate
  (2) There are no thermally accessible electronically excited states
  (3) Hindered rotations indicated by low frequency modes are not
      treated as such but are treated as vibrations and this may
      cause some error
  (4) All equations used are the standard statistical mechanics
      equations for an ideal gas
  (5) All vibrations are strictly harmonic

freq.      41.50  E(vib)   ...       0.54 
freq.      69.08  E(vib)   ...       0.50 
freq.     112.45  E(vib)   ...       0.45 
freq.     151.91  E(vib)   ...       0.40 
freq.     300.90  E(vib)   ...       0.26 
freq.     349.83  E(vib)   ...       0.23 
freq.     413.72  E(vib)   ...       0.19 
freq.     426.30  E(vib)   ...       0.18 
freq.     509.27  E(vib)   ...       0.14 
freq.     542.67  E(vib)   ...       0.12 
freq.     631.72  E(vib)   ...       0.09 
freq.     636.50  E(vib)   ...       0.09 
freq.     728.53  E(vib)   ...       0.06 
freq.     775.03  E(vib)   ...       0.05 
freq.     818.62  E(vib)   ...       0.05 
freq.     864.44  E(vib)   ...       0.04 
freq.     930.40  E(vib)   ...       0.03 
freq.     939.44  E(vib)   ...       0.03 
freq.     978.48  E(vib)   ...       0.03 
freq.     989.74  E(vib)   ...       0.02 
freq.    1015.42  E(vib)   ...       0.02 
freq.    1022.88  E(vib)   ...       0.02 
freq.    1048.74  E(vib)   ...       0.02 
freq.    1075.64  E(vib)   ...       0.02 
freq.    1107.18  E(vib)   ...       0.02 
freq.    1160.23  E(vib)   ...       0.01 
freq.    1179.71  E(vib)   ...       0.01 
freq.    1194.94  E(vib)   ...       0.01 
freq.    1233.15  E(vib)   ...       0.01 
freq.    1308.45  E(vib)   ...       0.01 
freq.    1344.37  E(vib)   ...       0.01 
freq.    1363.04  E(vib)   ...       0.01 
freq.    1398.46  E(vib)   ...       0.00 
freq.    1484.37  E(vib)   ...       0.00 
freq.    1497.12  E(vib)   ...       0.00 
freq.    1526.87  E(vib)   ...       0.00 
freq.    1618.88  E(vib)   ...       0.00 
freq.    1620.36  E(vib)   ...       0.00 
freq.    1637.43  E(vib)   ...       0.00 
freq.    3065.36  E(vib)   ...       0.00 
freq.    3116.40  E(vib)   ...       0.00 
freq.    3127.56  E(vib)   ...       0.00 
freq.    3171.01  E(vib)   ...       0.00 
freq.    3180.57  E(vib)   ...       0.00 
freq.    3188.84  E(vib)   ...       0.00 
freq.    3198.92  E(vib)   ...       0.00 
freq.    3468.23  E(vib)   ...       0.00 
freq.    3529.91  E(vib)   ...       0.00 

------------
INNER ENERGY
------------

The inner energy is: U= E(el) + E(ZPE) + E(vib) + E(rot) + E(trans)
    E(el)   - is the total energy from the electronic structure calculation
              = E(kin-el) + E(nuc-el) + E(el-el) + E(nuc-nuc)
    E(ZPE)  - the the zero temperature vibrational energy from the frequency calculation
    E(vib)  - the the finite temperature correction to E(ZPE) due to population
              of excited vibrational states
    E(rot)  - is the rotational thermal energy
    E(trans)- is the translational thermal energy

Summary of contributions to the inner energy U:
Electronic energy                ...  -1967.19620164 Eh
Zero point energy                ...      0.14829630 Eh      93.06 kcal/mol
Thermal vibrational correction   ...      0.00583247 Eh       3.66 kcal/mol
Thermal rotational correction    ...      0.00141627 Eh       0.89 kcal/mol
Thermal translational correction ...      0.00141627 Eh       0.89 kcal/mol
-----------------------------------------------------------------------
Total thermal energy                  -1967.03924033 Eh


Summary of corrections to the electronic energy:
(perhaps to be used in another calculation)
Total thermal correction                  0.00866501 Eh       5.44 kcal/mol
Non-thermal (ZPE) correction              0.14829630 Eh      93.06 kcal/mol
-----------------------------------------------------------------------
Total correction                          0.15696131 Eh      98.49 kcal/mol


--------
ENTHALPY
--------

The enthalpy is H = U + kB*T
                kB is Boltzmann's constant
Total free energy                 ...  -1967.03924033 Eh 
Thermal Enthalpy correction       ...      0.00094421 Eh       0.59 kcal/mol
-----------------------------------------------------------------------
Total Enthalpy                    ...  -1967.03829612 Eh


Note: Only C1 symmetry has been detected, increase convergence thresholds 
      if your molecule has a higher symmetry. Symmetry factor of 1.0 is   
      used for the rotational entropy correction. 
 

Note: Rotational entropy computed according to Herzberg 
Infrared and Raman Spectra, Chapter V,1, Van Nostrand Reinhold, 1945 
Point Group:  C1, Symmetry Number:   1  
Rotational constants in cm-1:     0.070842     0.031699     0.025631 

Vibrational entropy computed according to the QRRHO of S. Grimme
Chem.Eur.J. 2012 18 9955


-------
ENTROPY
-------

The entropy contributions are T*S = T*(S(el)+S(vib)+S(rot)+S(trans))
     S(el)   - electronic entropy
     S(vib)  - vibrational entropy
     S(rot)  - rotational entropy
     S(trans)- translational entropy
The entropies will be listed as multiplied by the temperature to get
units of energy

Electronic entropy                ...      0.00000000 Eh      0.00 kcal/mol
Vibrational entropy               ...      0.01006364 Eh      6.32 kcal/mol
Rotational entropy                ...      0.01411971 Eh      8.86 kcal/mol
Translational entropy             ...      0.01962863 Eh     12.32 kcal/mol
-----------------------------------------------------------------------
Final entropy term                ...      0.04381197 Eh     27.49 kcal/mol

In case the symmetry of your molecule has not been determined correctly
or in case you have a reason to use a different symmetry number we print 
out the resulting rotational entropy values for sn=1,12 :
 --------------------------------------------------------
|  sn= 1 | S(rot)=       0.01411971 Eh      8.86 kcal/mol|
|  sn= 2 | S(rot)=       0.01346525 Eh      8.45 kcal/mol|
|  sn= 3 | S(rot)=       0.01308242 Eh      8.21 kcal/mol|
|  sn= 4 | S(rot)=       0.01281079 Eh      8.04 kcal/mol|
|  sn= 5 | S(rot)=       0.01260011 Eh      7.91 kcal/mol|
|  sn= 6 | S(rot)=       0.01242796 Eh      7.80 kcal/mol|
|  sn= 7 | S(rot)=       0.01228242 Eh      7.71 kcal/mol|
|  sn= 8 | S(rot)=       0.01215634 Eh      7.63 kcal/mol|
|  sn= 9 | S(rot)=       0.01204513 Eh      7.56 kcal/mol|
|  sn=10 | S(rot)=       0.01194565 Eh      7.50 kcal/mol|
|  sn=11 | S(rot)=       0.01185566 Eh      7.44 kcal/mol|
|  sn=12 | S(rot)=       0.01177351 Eh      7.39 kcal/mol|
 --------------------------------------------------------


-------------------
GIBBS FREE ENERGY
-------------------

The Gibbs free energy is G = H - T*S

Total enthalpy                    ...  -1967.03829612 Eh 
Total entropy correction          ...     -0.04381197 Eh    -27.49 kcal/mol
-----------------------------------------------------------------------
Final Gibbs free energy         ...  -1967.08210809 Eh

For completeness - the Gibbs free energy minus the electronic energy
G-E(el)                           ...      0.11409355 Eh     71.59 kcal/mol


Timings for individual modules:

Sum of individual times         ...     4419.586 sec (=  73.660 min)
GTO integral calculation        ...      123.985 sec (=   2.066 min)   2.8 %
SCF iterations                  ...     2912.599 sec (=  48.543 min)  65.9 %
SCF Gradient evaluation         ...      223.476 sec (=   3.725 min)   5.1 %
Geometry relaxation             ...        0.871 sec (=   0.015 min)   0.0 %
Analytical frequency calculation...     1158.655 sec (=  19.311 min)  26.2 %
                             ****ORCA TERMINATED NORMALLY****
TOTAL RUN TIME: 0 days 1 hours 14 minutes 43 seconds 791 msec
